+ 0.5 0 1 cbr 210 ------- 0 0.0 2.0 0 0
- 0.5 0 1 cbr 210 ------- 0 0.0 2.0 0 0
+ 0.505 0 1 cbr 210 ------- 0 0.0 2.0 1 1
- 0.505 0 1 cbr 210 ------- 0 0.0 2.0 1 1
+ 0.51 0 1 cbr 210 ------- 0 0.0 2.0 2 2
- 0.51 0 1 cbr 210 ------- 0 0.0 2.0 2 2
+ 0.515 0 1 cbr 210 ------- 0 0.0 2.0 3 3
- 0.515 0 1 cbr 210 ------- 0 0.0 2.0 3 3
+ 0.52 0 1 cbr 210 ------- 0 0.0 2.0 4 4
- 0.52 0 1 cbr 210 ------- 0 0.0 2.0 4 4
r 0.52168 0 1 cbr 210 ------- 0 0.0 2.0 0 0
+ 0.52168 1 2 cbr 210 ------- 0 0.0 2.0 0 0
- 0.52168 1 2 cbr 210 ------- 0 0.0 2.0 0 0
+ 0.525 0 1 cbr 210 ------- 0 0.0 2.0 5 5
- 0.525 0 1 cbr 210 ------- 0 0.0 2.0 5 5
r 0.52668 0 1 cbr 210 ------- 0 0.0 2.0 1 1
+ 0.52668 1 2 cbr 210 ------- 0 0.0 2.0 1 1
+ 0.53 0 1 cbr 210 ------- 0 0.0 2.0 6 6
- 0.53 0 1 cbr 210 ------- 0 0.0 2.0 6 6
r 0.53168 0 1 cbr 210 ------- 0 0.0 2.0 2 2
+ 0.53168 1 2 cbr 210 ------- 0 0.0 2.0 2 2
+ 0.535 0 1 cbr 210 ------- 0 0.0 2.0 7 7
- 0.535 0 1 cbr 210 ------- 0 0.0 2.0 7 7
r 0.53668 0 1 cbr 210 ------- 0 0.0 2.0 3 3
+ 0.53668 1 2 cbr 210 ------- 0 0.0 2.0 3 3
+ 0.54 0 1 cbr 210 ------- 0 0.0 2.0 8 8
- 0.54 0 1 cbr 210 ------- 0 0.0 2.0 8 8
r 0.54168 0 1 cbr 210 ------- 0 0.0 2.0 4 4
+ 0.54168 1 2 cbr 210 ------- 0 0.0 2.0 4 4
+ 0.545 0 1 cbr 210 ------- 0 0.0 2.0 9 9
- 0.545 0 1 cbr 210 ------- 0 0.0 2.0 9 9
r 0.54668 0 1 cbr 210 ------- 0 0.0 2.0 5 5
+ 0.54668 1 2 cbr 210 ------- 0 0.0 2.0 5 5
- 0.54968 1 2 cbr 210 ------- 0 0.0 2.0 1 1
+ 0.55 0 1 cbr 210 ------- 0 0.0 2.0 10 10
- 0.55 0 1 cbr 210 ------- 0 0.0 2.0 10 10
r 0.55168 0 1 cbr 210 ------- 0 0.0 2.0 6 6
+ 0.55168 1 2 cbr 210 ------- 0 0.0 2.0 6 6
+ 0.555 0 1 cbr 210 ------- 0 0.0 2.0 11 11
- 0.555 0 1 cbr 210 ------- 0 0.0 2.0 11 11
r 0.55668 0 1 cbr 210 ------- 0 0.0 2.0 7 7
+ 0.55668 1 2 cbr 210 ------- 0 0.0 2.0 7 7
+ 0.56 0 1 cbr 210 ------- 0 0.0 2.0 12 12
- 0.56 0 1 cbr 210 ------- 0 0.0 2.0 12 12
r 0.56168 0 1 cbr 210 ------- 0 0.0 2.0 8 8
+ 0.56168 1 2 cbr 210 ------- 0 0.0 2.0 8 8
+ 0.565 0 1 cbr 210 ------- 0 0.0 2.0 13 13
- 0.565 0 1 cbr 210 ------- 0 0.0 2.0 13 13
r 0.56668 0 1 cbr 210 ------- 0 0.0 2.0 9 9
+ 0.56668 1 2 cbr 210 ------- 0 0.0 2.0 9 9
r 0.56968 1 2 cbr 210 ------- 0 0.0 2.0 0 0
+ 0.57 0 1 cbr 210 ------- 0 0.0 2.0 14 14
- 0.57 0 1 cbr 210 ------- 0 0.0 2.0 14 14
r 0.57168 0 1 cbr 210 ------- 0 0.0 2.0 10 10
+ 0.57168 1 2 cbr 210 ------- 0 0.0 2.0 10 10
+ 0.575 0 1 cbr 210 ------- 0 0.0 2.0 15 15
- 0.575 0 1 cbr 210 ------- 0 0.0 2.0 15 15
r 0.57668 0 1 cbr 210 ------- 0 0.0 2.0 11 11
+ 0.57668 1 2 cbr 210 ------- 0 0.0 2.0 11 11
d 0.57668 1 2 cbr 210 ------- 0 0.0 2.0 11 11
- 0.57768 1 2 cbr 210 ------- 0 0.0 2.0 2 2
+ 0.58 0 1 cbr 210 ------- 0 0.0 2.0 16 16
- 0.58 0 1 cbr 210 ------- 0 0.0 2.0 16 16
r 0.58168 0 1 cbr 210 ------- 0 0.0 2.0 12 12
+ 0.58168 1 2 cbr 210 ------- 0 0.0 2.0 12 12
+ 0.585 0 1 cbr 210 ------- 0 0.0 2.0 17 17
- 0.585 0 1 cbr 210 ------- 0 0.0 2.0 17 17
r 0.58668 0 1 cbr 210 ------- 0 0.0 2.0 13 13
+ 0.58668 1 2 cbr 210 ------- 0 0.0 2.0 13 13
d 0.58668 1 2 cbr 210 ------- 0 0.0 2.0 13 13
+ 0.59 0 1 cbr 210 ------- 0 0.0 2.0 18 18
- 0.59 0 1 cbr 210 ------- 0 0.0 2.0 18 18
r 0.59168 0 1 cbr 210 ------- 0 0.0 2.0 14 14
+ 0.59168 1 2 cbr 210 ------- 0 0.0 2.0 14 14
d 0.59168 1 2 cbr 210 ------- 0 0.0 2.0 14 14
+ 0.595 0 1 cbr 210 ------- 0 0.0 2.0 19 19
- 0.595 0 1 cbr 210 ------- 0 0.0 2.0 19 19
r 0.59668 0 1 cbr 210 ------- 0 0.0 2.0 15 15
+ 0.59668 1 2 cbr 210 ------- 0 0.0 2.0 15 15
d 0.59668 1 2 cbr 210 ------- 0 0.0 2.0 15 15
r 0.59768 1 2 cbr 210 ------- 0 0.0 2.0 1 1
+ 0.6 0 1 cbr 210 ------- 0 0.0 2.0 20 20
- 0.6 0 1 cbr 210 ------- 0 0.0 2.0 20 20
r 0.60168 0 1 cbr 210 ------- 0 0.0 2.0 16 16
+ 0.60168 1 2 cbr 210 ------- 0 0.0 2.0 16 16
d 0.60168 1 2 cbr 210 ------- 0 0.0 2.0 16 16
+ 0.605 0 1 cbr 210 ------- 0 0.0 2.0 21 21
- 0.605 0 1 cbr 210 ------- 0 0.0 2.0 21 21
- 0.60568 1 2 cbr 210 ------- 0 0.0 2.0 3 3
r 0.60668 0 1 cbr 210 ------- 0 0.0 2.0 17 17
+ 0.60668 1 2 cbr 210 ------- 0 0.0 2.0 17 17
+ 0.61 0 1 cbr 210 ------- 0 0.0 2.0 22 22
- 0.61 0 1 cbr 210 ------- 0 0.0 2.0 22 22
r 0.61168 0 1 cbr 210 ------- 0 0.0 2.0 18 18
+ 0.61168 1 2 cbr 210 ------- 0 0.0 2.0 18 18
d 0.61168 1 2 cbr 210 ------- 0 0.0 2.0 18 18
+ 0.615 0 1 cbr 210 ------- 0 0.0 2.0 23 23
- 0.615 0 1 cbr 210 ------- 0 0.0 2.0 23 23
r 0.61668 0 1 cbr 210 ------- 0 0.0 2.0 19 19
+ 0.61668 1 2 cbr 210 ------- 0 0.0 2.0 19 19
d 0.61668 1 2 cbr 210 ------- 0 0.0 2.0 19 19
+ 0.62 0 1 cbr 210 ------- 0 0.0 2.0 24 24
- 0.62 0 1 cbr 210 ------- 0 0.0 2.0 24 24
r 0.62168 0 1 cbr 210 ------- 0 0.0 2.0 20 20
+ 0.62168 1 2 cbr 210 ------- 0 0.0 2.0 20 20
d 0.62168 1 2 cbr 210 ------- 0 0.0 2.0 20 20
+ 0.625 0 1 cbr 210 ------- 0 0.0 2.0 25 25
- 0.625 0 1 cbr 210 ------- 0 0.0 2.0 25 25
r 0.62568 1 2 cbr 210 ------- 0 0.0 2.0 2 2
r 0.62668 0 1 cbr 210 ------- 0 0.0 2.0 21 21
+ 0.62668 1 2 cbr 210 ------- 0 0.0 2.0 21 21
d 0.62668 1 2 cbr 210 ------- 0 0.0 2.0 21 21
+ 0.63 0 1 cbr 210 ------- 0 0.0 2.0 26 26
- 0.63 0 1 cbr 210 ------- 0 0.0 2.0 26 26
r 0.63168 0 1 cbr 210 ------- 0 0.0 2.0 22 22
+ 0.63168 1 2 cbr 210 ------- 0 0.0 2.0 22 22
d 0.63168 1 2 cbr 210 ------- 0 0.0 2.0 22 22
- 0.63368 1 2 cbr 210 ------- 0 0.0 2.0 4 4
+ 0.635 0 1 cbr 210 ------- 0 0.0 2.0 27 27
- 0.635 0 1 cbr 210 ------- 0 0.0 2.0 27 27
r 0.63668 0 1 cbr 210 ------- 0 0.0 2.0 23 23
+ 0.63668 1 2 cbr 210 ------- 0 0.0 2.0 23 23
+ 0.64 0 1 cbr 210 ------- 0 0.0 2.0 28 28
- 0.64 0 1 cbr 210 ------- 0 0.0 2.0 28 28
r 0.64168 0 1 cbr 210 ------- 0 0.0 2.0 24 24
+ 0.64168 1 2 cbr 210 ------- 0 0.0 2.0 24 24
d 0.64168 1 2 cbr 210 ------- 0 0.0 2.0 24 24
+ 0.645 0 1 cbr 210 ------- 0 0.0 2.0 29 29
- 0.645 0 1 cbr 210 ------- 0 0.0 2.0 29 29
r 0.64668 0 1 cbr 210 ------- 0 0.0 2.0 25 25
+ 0.64668 1 2 cbr 210 ------- 0 0.0 2.0 25 25
d 0.64668 1 2 cbr 210 ------- 0 0.0 2.0 25 25
+ 0.65 0 1 cbr 210 ------- 0 0.0 2.0 30 30
- 0.65 0 1 cbr 210 ------- 0 0.0 2.0 30 30
r 0.65168 0 1 cbr 210 ------- 0 0.0 2.0 26 26
+ 0.65168 1 2 cbr 210 ------- 0 0.0 2.0 26 26
d 0.65168 1 2 cbr 210 ------- 0 0.0 2.0 26 26
r 0.65368 1 2 cbr 210 ------- 0 0.0 2.0 3 3
+ 0.655 0 1 cbr 210 ------- 0 0.0 2.0 31 31
- 0.655 0 1 cbr 210 ------- 0 0.0 2.0 31 31
r 0.65668 0 1 cbr 210 ------- 0 0.0 2.0 27 27
+ 0.65668 1 2 cbr 210 ------- 0 0.0 2.0 27 27
d 0.65668 1 2 cbr 210 ------- 0 0.0 2.0 27 27
+ 0.66 0 1 cbr 210 ------- 0 0.0 2.0 32 32
- 0.66 0 1 cbr 210 ------- 0 0.0 2.0 32 32
- 0.66168 1 2 cbr 210 ------- 0 0.0 2.0 5 5
r 0.66168 0 1 cbr 210 ------- 0 0.0 2.0 28 28
+ 0.66168 1 2 cbr 210 ------- 0 0.0 2.0 28 28
+ 0.665 0 1 cbr 210 ------- 0 0.0 2.0 33 33
- 0.665 0 1 cbr 210 ------- 0 0.0 2.0 33 33
r 0.66668 0 1 cbr 210 ------- 0 0.0 2.0 29 29
+ 0.66668 1 2 cbr 210 ------- 0 0.0 2.0 29 29
d 0.66668 1 2 cbr 210 ------- 0 0.0 2.0 29 29
+ 0.67 0 1 cbr 210 ------- 0 0.0 2.0 34 34
- 0.67 0 1 cbr 210 ------- 0 0.0 2.0 34 34
r 0.67168 0 1 cbr 210 ------- 0 0.0 2.0 30 30
+ 0.67168 1 2 cbr 210 ------- 0 0.0 2.0 30 30
d 0.67168 1 2 cbr 210 ------- 0 0.0 2.0 30 30
+ 0.675 0 1 cbr 210 ------- 0 0.0 2.0 35 35
- 0.675 0 1 cbr 210 ------- 0 0.0 2.0 35 35
r 0.67668 0 1 cbr 210 ------- 0 0.0 2.0 31 31
+ 0.67668 1 2 cbr 210 ------- 0 0.0 2.0 31 31
d 0.67668 1 2 cbr 210 ------- 0 0.0 2.0 31 31
+ 0.68 0 1 cbr 210 ------- 0 0.0 2.0 36 36
- 0.68 0 1 cbr 210 ------- 0 0.0 2.0 36 36
r 0.68168 1 2 cbr 210 ------- 0 0.0 2.0 4 4
r 0.68168 0 1 cbr 210 ------- 0 0.0 2.0 32 32
+ 0.68168 1 2 cbr 210 ------- 0 0.0 2.0 32 32
d 0.68168 1 2 cbr 210 ------- 0 0.0 2.0 32 32
+ 0.685 0 1 cbr 210 ------- 0 0.0 2.0 37 37
- 0.685 0 1 cbr 210 ------- 0 0.0 2.0 37 37
r 0.68668 0 1 cbr 210 ------- 0 0.0 2.0 33 33
+ 0.68668 1 2 cbr 210 ------- 0 0.0 2.0 33 33
d 0.68668 1 2 cbr 210 ------- 0 0.0 2.0 33 33
- 0.68968 1 2 cbr 210 ------- 0 0.0 2.0 6 6
+ 0.69 0 1 cbr 210 ------- 0 0.0 2.0 38 38
- 0.69 0 1 cbr 210 ------- 0 0.0 2.0 38 38
r 0.69168 0 1 cbr 210 ------- 0 0.0 2.0 34 34
+ 0.69168 1 2 cbr 210 ------- 0 0.0 2.0 34 34
+ 0.695 0 1 cbr 210 ------- 0 0.0 2.0 39 39
- 0.695 0 1 cbr 210 ------- 0 0.0 2.0 39 39
r 0.69668 0 1 cbr 210 ------- 0 0.0 2.0 35 35
+ 0.69668 1 2 cbr 210 ------- 0 0.0 2.0 35 35
d 0.69668 1 2 cbr 210 ------- 0 0.0 2.0 35 35
+ 0.7 0 1 cbr 210 ------- 0 0.0 2.0 40 40
- 0.7 0 1 cbr 210 ------- 0 0.0 2.0 40 40
r 0.70168 0 1 cbr 210 ------- 0 0.0 2.0 36 36
+ 0.70168 1 2 cbr 210 ------- 0 0.0 2.0 36 36
d 0.70168 1 2 cbr 210 ------- 0 0.0 2.0 36 36
+ 0.705 0 1 cbr 210 ------- 0 0.0 2.0 41 41
- 0.705 0 1 cbr 210 ------- 0 0.0 2.0 41 41
r 0.70668 0 1 cbr 210 ------- 0 0.0 2.0 37 37
+ 0.70668 1 2 cbr 210 ------- 0 0.0 2.0 37 37
d 0.70668 1 2 cbr 210 ------- 0 0.0 2.0 37 37
r 0.70968 1 2 cbr 210 ------- 0 0.0 2.0 5 5
+ 0.71 0 1 cbr 210 ------- 0 0.0 2.0 42 42
- 0.71 0 1 cbr 210 ------- 0 0.0 2.0 42 42
r 0.71168 0 1 cbr 210 ------- 0 0.0 2.0 38 38
+ 0.71168 1 2 cbr 210 ------- 0 0.0 2.0 38 38
d 0.71168 1 2 cbr 210 ------- 0 0.0 2.0 38 38
+ 0.715 0 1 cbr 210 ------- 0 0.0 2.0 43 43
- 0.715 0 1 cbr 210 ------- 0 0.0 2.0 43 43
r 0.71668 0 1 cbr 210 ------- 0 0.0 2.0 39 39
+ 0.71668 1 2 cbr 210 ------- 0 0.0 2.0 39 39
d 0.71668 1 2 cbr 210 ------- 0 0.0 2.0 39 39
- 0.71768 1 2 cbr 210 ------- 0 0.0 2.0 7 7
+ 0.72 0 1 cbr 210 ------- 0 0.0 2.0 44 44
- 0.72 0 1 cbr 210 ------- 0 0.0 2.0 44 44
r 0.72168 0 1 cbr 210 ------- 0 0.0 2.0 40 40
+ 0.72168 1 2 cbr 210 ------- 0 0.0 2.0 40 40
+ 0.725 0 1 cbr 210 ------- 0 0.0 2.0 45 45
- 0.725 0 1 cbr 210 ------- 0 0.0 2.0 45 45
r 0.72668 0 1 cbr 210 ------- 0 0.0 2.0 41 41
+ 0.72668 1 2 cbr 210 ------- 0 0.0 2.0 41 41
d 0.72668 1 2 cbr 210 ------- 0 0.0 2.0 41 41
+ 0.73 0 1 cbr 210 ------- 0 0.0 2.0 46 46
- 0.73 0 1 cbr 210 ------- 0 0.0 2.0 46 46
r 0.73168 0 1 cbr 210 ------- 0 0.0 2.0 42 42
+ 0.73168 1 2 cbr 210 ------- 0 0.0 2.0 42 42
d 0.73168 1 2 cbr 210 ------- 0 0.0 2.0 42 42
+ 0.735 0 1 cbr 210 ------- 0 0.0 2.0 47 47
- 0.735 0 1 cbr 210 ------- 0 0.0 2.0 47 47
r 0.73668 0 1 cbr 210 ------- 0 0.0 2.0 43 43
+ 0.73668 1 2 cbr 210 ------- 0 0.0 2.0 43 43
d 0.73668 1 2 cbr 210 ------- 0 0.0 2.0 43 43
r 0.73768 1 2 cbr 210 ------- 0 0.0 2.0 6 6
+ 0.74 0 1 cbr 210 ------- 0 0.0 2.0 48 48
- 0.74 0 1 cbr 210 ------- 0 0.0 2.0 48 48
r 0.74168 0 1 cbr 210 ------- 0 0.0 2.0 44 44
+ 0.74168 1 2 cbr 210 ------- 0 0.0 2.0 44 44
d 0.74168 1 2 cbr 210 ------- 0 0.0 2.0 44 44
+ 0.745 0 1 cbr 210 ------- 0 0.0 2.0 49 49
- 0.745 0 1 cbr 210 ------- 0 0.0 2.0 49 49
- 0.74568 1 2 cbr 210 ------- 0 0.0 2.0 8 8
r 0.74668 0 1 cbr 210 ------- 0 0.0 2.0 45 45
+ 0.74668 1 2 cbr 210 ------- 0 0.0 2.0 45 45
+ 0.75 0 1 cbr 210 ------- 0 0.0 2.0 50 50
- 0.75 0 1 cbr 210 ------- 0 0.0 2.0 50 50
r 0.75168 0 1 cbr 210 ------- 0 0.0 2.0 46 46
+ 0.75168 1 2 cbr 210 ------- 0 0.0 2.0 46 46
d 0.75168 1 2 cbr 210 ------- 0 0.0 2.0 46 46
+ 0.755 0 1 cbr 210 ------- 0 0.0 2.0 51 51
- 0.755 0 1 cbr 210 ------- 0 0.0 2.0 51 51
r 0.75668 0 1 cbr 210 ------- 0 0.0 2.0 47 47
+ 0.75668 1 2 cbr 210 ------- 0 0.0 2.0 47 47
d 0.75668 1 2 cbr 210 ------- 0 0.0 2.0 47 47
+ 0.76 0 1 cbr 210 ------- 0 0.0 2.0 52 52
- 0.76 0 1 cbr 210 ------- 0 0.0 2.0 52 52
r 0.76168 0 1 cbr 210 ------- 0 0.0 2.0 48 48
+ 0.76168 1 2 cbr 210 ------- 0 0.0 2.0 48 48
d 0.76168 1 2 cbr 210 ------- 0 0.0 2.0 48 48
+ 0.765 0 1 cbr 210 ------- 0 0.0 2.0 53 53
- 0.765 0 1 cbr 210 ------- 0 0.0 2.0 53 53
r 0.76568 1 2 cbr 210 ------- 0 0.0 2.0 7 7
r 0.76668 0 1 cbr 210 ------- 0 0.0 2.0 49 49
+ 0.76668 1 2 cbr 210 ------- 0 0.0 2.0 49 49
d 0.76668 1 2 cbr 210 ------- 0 0.0 2.0 49 49
+ 0.77 0 1 cbr 210 ------- 0 0.0 2.0 54 54
- 0.77 0 1 cbr 210 ------- 0 0.0 2.0 54 54
r 0.77168 0 1 cbr 210 ------- 0 0.0 2.0 50 50
+ 0.77168 1 2 cbr 210 ------- 0 0.0 2.0 50 50
d 0.77168 1 2 cbr 210 ------- 0 0.0 2.0 50 50
- 0.77368 1 2 cbr 210 ------- 0 0.0 2.0 9 9
+ 0.775 0 1 cbr 210 ------- 0 0.0 2.0 55 55
- 0.775 0 1 cbr 210 ------- 0 0.0 2.0 55 55
r 0.77668 0 1 cbr 210 ------- 0 0.0 2.0 51 51
+ 0.77668 1 2 cbr 210 ------- 0 0.0 2.0 51 51
+ 0.78 0 1 cbr 210 ------- 0 0.0 2.0 56 56
- 0.78 0 1 cbr 210 ------- 0 0.0 2.0 56 56
r 0.78168 0 1 cbr 210 ------- 0 0.0 2.0 52 52
+ 0.78168 1 2 cbr 210 ------- 0 0.0 2.0 52 52
d 0.78168 1 2 cbr 210 ------- 0 0.0 2.0 52 52
+ 0.785 0 1 cbr 210 ------- 0 0.0 2.0 57 57
- 0.785 0 1 cbr 210 ------- 0 0.0 2.0 57 57
r 0.78668 0 1 cbr 210 ------- 0 0.0 2.0 53 53
+ 0.78668 1 2 cbr 210 ------- 0 0.0 2.0 53 53
d 0.78668 1 2 cbr 210 ------- 0 0.0 2.0 53 53
+ 0.79 0 1 cbr 210 ------- 0 0.0 2.0 58 58
- 0.79 0 1 cbr 210 ------- 0 0.0 2.0 58 58
r 0.79168 0 1 cbr 210 ------- 0 0.0 2.0 54 54
+ 0.79168 1 2 cbr 210 ------- 0 0.0 2.0 54 54
d 0.79168 1 2 cbr 210 ------- 0 0.0 2.0 54 54
r 0.79368 1 2 cbr 210 ------- 0 0.0 2.0 8 8
+ 0.795 0 1 cbr 210 ------- 0 0.0 2.0 59 59
- 0.795 0 1 cbr 210 ------- 0 0.0 2.0 59 59
r 0.79668 0 1 cbr 210 ------- 0 0.0 2.0 55 55
+ 0.79668 1 2 cbr 210 ------- 0 0.0 2.0 55 55
d 0.79668 1 2 cbr 210 ------- 0 0.0 2.0 55 55
+ 0.8 0 1 cbr 210 ------- 0 0.0 2.0 60 60
- 0.8 0 1 cbr 210 ------- 0 0.0 2.0 60 60
- 0.80168 1 2 cbr 210 ------- 0 0.0 2.0 10 10
r 0.80168 0 1 cbr 210 ------- 0 0.0 2.0 56 56
+ 0.80168 1 2 cbr 210 ------- 0 0.0 2.0 56 56
+ 0.805 0 1 cbr 210 ------- 0 0.0 2.0 61 61
- 0.805 0 1 cbr 210 ------- 0 0.0 2.0 61 61
r 0.80668 0 1 cbr 210 ------- 0 0.0 2.0 57 57
+ 0.80668 1 2 cbr 210 ------- 0 0.0 2.0 57 57
d 0.80668 1 2 cbr 210 ------- 0 0.0 2.0 57 57
+ 0.81 0 1 cbr 210 ------- 0 0.0 2.0 62 62
- 0.81 0 1 cbr 210 ------- 0 0.0 2.0 62 62
r 0.81168 0 1 cbr 210 ------- 0 0.0 2.0 58 58
+ 0.81168 1 2 cbr 210 ------- 0 0.0 2.0 58 58
d 0.81168 1 2 cbr 210 ------- 0 0.0 2.0 58 58
+ 0.815 0 1 cbr 210 ------- 0 0.0 2.0 63 63
- 0.815 0 1 cbr 210 ------- 0 0.0 2.0 63 63
r 0.81668 0 1 cbr 210 ------- 0 0.0 2.0 59 59
+ 0.81668 1 2 cbr 210 ------- 0 0.0 2.0 59 59
d 0.81668 1 2 cbr 210 ------- 0 0.0 2.0 59 59
+ 0.82 0 1 cbr 210 ------- 0 0.0 2.0 64 64
- 0.82 0 1 cbr 210 ------- 0 0.0 2.0 64 64
r 0.82168 1 2 cbr 210 ------- 0 0.0 2.0 9 9
r 0.82168 0 1 cbr 210 ------- 0 0.0 2.0 60 60
+ 0.82168 1 2 cbr 210 ------- 0 0.0 2.0 60 60
d 0.82168 1 2 cbr 210 ------- 0 0.0 2.0 60 60
+ 0.825 0 1 cbr 210 ------- 0 0.0 2.0 65 65
- 0.825 0 1 cbr 210 ------- 0 0.0 2.0 65 65
r 0.82668 0 1 cbr 210 ------- 0 0.0 2.0 61 61
+ 0.82668 1 2 cbr 210 ------- 0 0.0 2.0 61 61
d 0.82668 1 2 cbr 210 ------- 0 0.0 2.0 61 61
- 0.82968 1 2 cbr 210 ------- 0 0.0 2.0 12 12
+ 0.83 0 1 cbr 210 ------- 0 0.0 2.0 66 66
- 0.83 0 1 cbr 210 ------- 0 0.0 2.0 66 66
r 0.83168 0 1 cbr 210 ------- 0 0.0 2.0 62 62
+ 0.83168 1 2 cbr 210 ------- 0 0.0 2.0 62 62
+ 0.835 0 1 cbr 210 ------- 0 0.0 2.0 67 67
- 0.835 0 1 cbr 210 ------- 0 0.0 2.0 67 67
r 0.83668 0 1 cbr 210 ------- 0 0.0 2.0 63 63
+ 0.83668 1 2 cbr 210 ------- 0 0.0 2.0 63 63
d 0.83668 1 2 cbr 210 ------- 0 0.0 2.0 63 63
+ 0.84 0 1 cbr 210 ------- 0 0.0 2.0 68 68
- 0.84 0 1 cbr 210 ------- 0 0.0 2.0 68 68
r 0.84168 0 1 cbr 210 ------- 0 0.0 2.0 64 64
+ 0.84168 1 2 cbr 210 ------- 0 0.0 2.0 64 64
d 0.84168 1 2 cbr 210 ------- 0 0.0 2.0 64 64
+ 0.845 0 1 cbr 210 ------- 0 0.0 2.0 69 69
- 0.845 0 1 cbr 210 ------- 0 0.0 2.0 69 69
r 0.84668 0 1 cbr 210 ------- 0 0.0 2.0 65 65
+ 0.84668 1 2 cbr 210 ------- 0 0.0 2.0 65 65
d 0.84668 1 2 cbr 210 ------- 0 0.0 2.0 65 65
r 0.84968 1 2 cbr 210 ------- 0 0.0 2.0 10 10
+ 0.85 0 1 cbr 210 ------- 0 0.0 2.0 70 70
- 0.85 0 1 cbr 210 ------- 0 0.0 2.0 70 70
r 0.85168 0 1 cbr 210 ------- 0 0.0 2.0 66 66
+ 0.85168 1 2 cbr 210 ------- 0 0.0 2.0 66 66
d 0.85168 1 2 cbr 210 ------- 0 0.0 2.0 66 66
+ 0.855 0 1 cbr 210 ------- 0 0.0 2.0 71 71
- 0.855 0 1 cbr 210 ------- 0 0.0 2.0 71 71
r 0.85668 0 1 cbr 210 ------- 0 0.0 2.0 67 67
+ 0.85668 1 2 cbr 210 ------- 0 0.0 2.0 67 67
d 0.85668 1 2 cbr 210 ------- 0 0.0 2.0 67 67
- 0.85768 1 2 cbr 210 ------- 0 0.0 2.0 17 17
+ 0.86 0 1 cbr 210 ------- 0 0.0 2.0 72 72
- 0.86 0 1 cbr 210 ------- 0 0.0 2.0 72 72
r 0.86168 0 1 cbr 210 ------- 0 0.0 2.0 68 68
+ 0.86168 1 2 cbr 210 ------- 0 0.0 2.0 68 68
+ 0.865 0 1 cbr 210 ------- 0 0.0 2.0 73 73
- 0.865 0 1 cbr 210 ------- 0 0.0 2.0 73 73
r 0.86668 0 1 cbr 210 ------- 0 0.0 2.0 69 69
+ 0.86668 1 2 cbr 210 ------- 0 0.0 2.0 69 69
d 0.86668 1 2 cbr 210 ------- 0 0.0 2.0 69 69
+ 0.87 0 1 cbr 210 ------- 0 0.0 2.0 74 74
- 0.87 0 1 cbr 210 ------- 0 0.0 2.0 74 74
r 0.87168 0 1 cbr 210 ------- 0 0.0 2.0 70 70
+ 0.87168 1 2 cbr 210 ------- 0 0.0 2.0 70 70
d 0.87168 1 2 cbr 210 ------- 0 0.0 2.0 70 70
+ 0.875 0 1 cbr 210 ------- 0 0.0 2.0 75 75
- 0.875 0 1 cbr 210 ------- 0 0.0 2.0 75 75
r 0.87668 0 1 cbr 210 ------- 0 0.0 2.0 71 71
+ 0.87668 1 2 cbr 210 ------- 0 0.0 2.0 71 71
d 0.87668 1 2 cbr 210 ------- 0 0.0 2.0 71 71
r 0.87768 1 2 cbr 210 ------- 0 0.0 2.0 12 12
+ 0.88 0 1 cbr 210 ------- 0 0.0 2.0 76 76
- 0.88 0 1 cbr 210 ------- 0 0.0 2.0 76 76
r 0.88168 0 1 cbr 210 ------- 0 0.0 2.0 72 72
+ 0.88168 1 2 cbr 210 ------- 0 0.0 2.0 72 72
d 0.88168 1 2 cbr 210 ------- 0 0.0 2.0 72 72
+ 0.885 0 1 cbr 210 ------- 0 0.0 2.0 77 77
- 0.885 0 1 cbr 210 ------- 0 0.0 2.0 77 77
- 0.88568 1 2 cbr 210 ------- 0 0.0 2.0 23 23
r 0.88668 0 1 cbr 210 ------- 0 0.0 2.0 73 73
+ 0.88668 1 2 cbr 210 ------- 0 0.0 2.0 73 73
+ 0.89 0 1 cbr 210 ------- 0 0.0 2.0 78 78
- 0.89 0 1 cbr 210 ------- 0 0.0 2.0 78 78
r 0.89168 0 1 cbr 210 ------- 0 0.0 2.0 74 74
+ 0.89168 1 2 cbr 210 ------- 0 0.0 2.0 74 74
d 0.89168 1 2 cbr 210 ------- 0 0.0 2.0 74 74
+ 0.895 0 1 cbr 210 ------- 0 0.0 2.0 79 79
- 0.895 0 1 cbr 210 ------- 0 0.0 2.0 79 79
r 0.89668 0 1 cbr 210 ------- 0 0.0 2.0 75 75
+ 0.89668 1 2 cbr 210 ------- 0 0.0 2.0 75 75
d 0.89668 1 2 cbr 210 ------- 0 0.0 2.0 75 75
+ 0.9 0 1 cbr 210 ------- 0 0.0 2.0 80 80
- 0.9 0 1 cbr 210 ------- 0 0.0 2.0 80 80
r 0.90168 0 1 cbr 210 ------- 0 0.0 2.0 76 76
+ 0.90168 1 2 cbr 210 ------- 0 0.0 2.0 76 76
d 0.90168 1 2 cbr 210 ------- 0 0.0 2.0 76 76
+ 0.905 0 1 cbr 210 ------- 0 0.0 2.0 81 81
- 0.905 0 1 cbr 210 ------- 0 0.0 2.0 81 81
r 0.90568 1 2 cbr 210 ------- 0 0.0 2.0 17 17
r 0.90668 0 1 cbr 210 ------- 0 0.0 2.0 77 77
+ 0.90668 1 2 cbr 210 ------- 0 0.0 2.0 77 77
d 0.90668 1 2 cbr 210 ------- 0 0.0 2.0 77 77
+ 0.91 0 1 cbr 210 ------- 0 0.0 2.0 82 82
- 0.91 0 1 cbr 210 ------- 0 0.0 2.0 82 82
r 0.91168 0 1 cbr 210 ------- 0 0.0 2.0 78 78
+ 0.91168 1 2 cbr 210 ------- 0 0.0 2.0 78 78
d 0.91168 1 2 cbr 210 ------- 0 0.0 2.0 78 78
- 0.91368 1 2 cbr 210 ------- 0 0.0 2.0 28 28
+ 0.915 0 1 cbr 210 ------- 0 0.0 2.0 83 83
- 0.915 0 1 cbr 210 ------- 0 0.0 2.0 83 83
r 0.91668 0 1 cbr 210 ------- 0 0.0 2.0 79 79
+ 0.91668 1 2 cbr 210 ------- 0 0.0 2.0 79 79
+ 0.92 0 1 cbr 210 ------- 0 0.0 2.0 84 84
- 0.92 0 1 cbr 210 ------- 0 0.0 2.0 84 84
r 0.92168 0 1 cbr 210 ------- 0 0.0 2.0 80 80
+ 0.92168 1 2 cbr 210 ------- 0 0.0 2.0 80 80
d 0.92168 1 2 cbr 210 ------- 0 0.0 2.0 80 80
+ 0.925 0 1 cbr 210 ------- 0 0.0 2.0 85 85
- 0.925 0 1 cbr 210 ------- 0 0.0 2.0 85 85
r 0.92668 0 1 cbr 210 ------- 0 0.0 2.0 81 81
+ 0.92668 1 2 cbr 210 ------- 0 0.0 2.0 81 81
d 0.92668 1 2 cbr 210 ------- 0 0.0 2.0 81 81
+ 0.93 0 1 cbr 210 ------- 0 0.0 2.0 86 86
- 0.93 0 1 cbr 210 ------- 0 0.0 2.0 86 86
r 0.93168 0 1 cbr 210 ------- 0 0.0 2.0 82 82
+ 0.93168 1 2 cbr 210 ------- 0 0.0 2.0 82 82
d 0.93168 1 2 cbr 210 ------- 0 0.0 2.0 82 82
r 0.93368 1 2 cbr 210 ------- 0 0.0 2.0 23 23
+ 0.935 0 1 cbr 210 ------- 0 0.0 2.0 87 87
- 0.935 0 1 cbr 210 ------- 0 0.0 2.0 87 87
r 0.93668 0 1 cbr 210 ------- 0 0.0 2.0 83 83
+ 0.93668 1 2 cbr 210 ------- 0 0.0 2.0 83 83
d 0.93668 1 2 cbr 210 ------- 0 0.0 2.0 83 83
+ 0.94 0 1 cbr 210 ------- 0 0.0 2.0 88 88
- 0.94 0 1 cbr 210 ------- 0 0.0 2.0 88 88
- 0.94168 1 2 cbr 210 ------- 0 0.0 2.0 34 34
r 0.94168 0 1 cbr 210 ------- 0 0.0 2.0 84 84
+ 0.94168 1 2 cbr 210 ------- 0 0.0 2.0 84 84
+ 0.945 0 1 cbr 210 ------- 0 0.0 2.0 89 89
- 0.945 0 1 cbr 210 ------- 0 0.0 2.0 89 89
r 0.94668 0 1 cbr 210 ------- 0 0.0 2.0 85 85
+ 0.94668 1 2 cbr 210 ------- 0 0.0 2.0 85 85
d 0.94668 1 2 cbr 210 ------- 0 0.0 2.0 85 85
+ 0.95 0 1 cbr 210 ------- 0 0.0 2.0 90 90
- 0.95 0 1 cbr 210 ------- 0 0.0 2.0 90 90
r 0.95168 0 1 cbr 210 ------- 0 0.0 2.0 86 86
+ 0.95168 1 2 cbr 210 ------- 0 0.0 2.0 86 86
d 0.95168 1 2 cbr 210 ------- 0 0.0 2.0 86 86
+ 0.955 0 1 cbr 210 ------- 0 0.0 2.0 91 91
- 0.955 0 1 cbr 210 ------- 0 0.0 2.0 91 91
r 0.95668 0 1 cbr 210 ------- 0 0.0 2.0 87 87
+ 0.95668 1 2 cbr 210 ------- 0 0.0 2.0 87 87
d 0.95668 1 2 cbr 210 ------- 0 0.0 2.0 87 87
+ 0.96 0 1 cbr 210 ------- 0 0.0 2.0 92 92
- 0.96 0 1 cbr 210 ------- 0 0.0 2.0 92 92
r 0.96168 1 2 cbr 210 ------- 0 0.0 2.0 28 28
r 0.96168 0 1 cbr 210 ------- 0 0.0 2.0 88 88
+ 0.96168 1 2 cbr 210 ------- 0 0.0 2.0 88 88
d 0.96168 1 2 cbr 210 ------- 0 0.0 2.0 88 88
+ 0.965 0 1 cbr 210 ------- 0 0.0 2.0 93 93
- 0.965 0 1 cbr 210 ------- 0 0.0 2.0 93 93
r 0.96668 0 1 cbr 210 ------- 0 0.0 2.0 89 89
+ 0.96668 1 2 cbr 210 ------- 0 0.0 2.0 89 89
d 0.96668 1 2 cbr 210 ------- 0 0.0 2.0 89 89
- 0.96968 1 2 cbr 210 ------- 0 0.0 2.0 40 40
+ 0.97 0 1 cbr 210 ------- 0 0.0 2.0 94 94
- 0.97 0 1 cbr 210 ------- 0 0.0 2.0 94 94
r 0.97168 0 1 cbr 210 ------- 0 0.0 2.0 90 90
+ 0.97168 1 2 cbr 210 ------- 0 0.0 2.0 90 90
+ 0.975 0 1 cbr 210 ------- 0 0.0 2.0 95 95
- 0.975 0 1 cbr 210 ------- 0 0.0 2.0 95 95
r 0.97668 0 1 cbr 210 ------- 0 0.0 2.0 91 91
+ 0.97668 1 2 cbr 210 ------- 0 0.0 2.0 91 91
d 0.97668 1 2 cbr 210 ------- 0 0.0 2.0 91 91
+ 0.98 0 1 cbr 210 ------- 0 0.0 2.0 96 96
- 0.98 0 1 cbr 210 ------- 0 0.0 2.0 96 96
r 0.98168 0 1 cbr 210 ------- 0 0.0 2.0 92 92
+ 0.98168 1 2 cbr 210 ------- 0 0.0 2.0 92 92
d 0.98168 1 2 cbr 210 ------- 0 0.0 2.0 92 92
+ 0.985 0 1 cbr 210 ------- 0 0.0 2.0 97 97
- 0.985 0 1 cbr 210 ------- 0 0.0 2.0 97 97
r 0.98668 0 1 cbr 210 ------- 0 0.0 2.0 93 93
+ 0.98668 1 2 cbr 210 ------- 0 0.0 2.0 93 93
d 0.98668 1 2 cbr 210 ------- 0 0.0 2.0 93 93
r 0.98968 1 2 cbr 210 ------- 0 0.0 2.0 34 34
+ 0.99 0 1 cbr 210 ------- 0 0.0 2.0 98 98
- 0.99 0 1 cbr 210 ------- 0 0.0 2.0 98 98
r 0.99168 0 1 cbr 210 ------- 0 0.0 2.0 94 94
+ 0.99168 1 2 cbr 210 ------- 0 0.0 2.0 94 94
d 0.99168 1 2 cbr 210 ------- 0 0.0 2.0 94 94
+ 0.995 0 1 cbr 210 ------- 0 0.0 2.0 99 99
- 0.995 0 1 cbr 210 ------- 0 0.0 2.0 99 99
r 0.99668 0 1 cbr 210 ------- 0 0.0 2.0 95 95
+ 0.99668 1 2 cbr 210 ------- 0 0.0 2.0 95 95
d 0.99668 1 2 cbr 210 ------- 0 0.0 2.0 95 95
- 0.99768 1 2 cbr 210 ------- 0 0.0 2.0 45 45
+ 1 0 1 cbr 210 ------- 0 0.0 2.0 100 100
- 1 0 1 cbr 210 ------- 0 0.0 2.0 100 100
r 1.00168 0 1 cbr 210 ------- 0 0.0 2.0 96 96
+ 1.00168 1 2 cbr 210 ------- 0 0.0 2.0 96 96
+ 1.005 0 1 cbr 210 ------- 0 0.0 2.0 101 101
- 1.005 0 1 cbr 210 ------- 0 0.0 2.0 101 101
r 1.00668 0 1 cbr 210 ------- 0 0.0 2.0 97 97
+ 1.00668 1 2 cbr 210 ------- 0 0.0 2.0 97 97
d 1.00668 1 2 cbr 210 ------- 0 0.0 2.0 97 97
+ 1.01 0 1 cbr 210 ------- 0 0.0 2.0 102 102
- 1.01 0 1 cbr 210 ------- 0 0.0 2.0 102 102
r 1.01168 0 1 cbr 210 ------- 0 0.0 2.0 98 98
+ 1.01168 1 2 cbr 210 ------- 0 0.0 2.0 98 98
d 1.01168 1 2 cbr 210 ------- 0 0.0 2.0 98 98
+ 1.015 0 1 cbr 210 ------- 0 0.0 2.0 103 103
- 1.015 0 1 cbr 210 ------- 0 0.0 2.0 103 103
r 1.01668 0 1 cbr 210 ------- 0 0.0 2.0 99 99
+ 1.01668 1 2 cbr 210 ------- 0 0.0 2.0 99 99
d 1.01668 1 2 cbr 210 ------- 0 0.0 2.0 99 99
r 1.01768 1 2 cbr 210 ------- 0 0.0 2.0 40 40
+ 1.02 0 1 cbr 210 ------- 0 0.0 2.0 104 104
- 1.02 0 1 cbr 210 ------- 0 0.0 2.0 104 104
r 1.02168 0 1 cbr 210 ------- 0 0.0 2.0 100 100
+ 1.02168 1 2 cbr 210 ------- 0 0.0 2.0 100 100
d 1.02168 1 2 cbr 210 ------- 0 0.0 2.0 100 100
+ 1.025 0 1 cbr 210 ------- 0 0.0 2.0 105 105
- 1.025 0 1 cbr 210 ------- 0 0.0 2.0 105 105
- 1.02568 1 2 cbr 210 ------- 0 0.0 2.0 51 51
r 1.02668 0 1 cbr 210 ------- 0 0.0 2.0 101 101
+ 1.02668 1 2 cbr 210 ------- 0 0.0 2.0 101 101
+ 1.03 0 1 cbr 210 ------- 0 0.0 2.0 106 106
- 1.03 0 1 cbr 210 ------- 0 0.0 2.0 106 106
r 1.03168 0 1 cbr 210 ------- 0 0.0 2.0 102 102
+ 1.03168 1 2 cbr 210 ------- 0 0.0 2.0 102 102
d 1.03168 1 2 cbr 210 ------- 0 0.0 2.0 102 102
+ 1.035 0 1 cbr 210 ------- 0 0.0 2.0 107 107
- 1.035 0 1 cbr 210 ------- 0 0.0 2.0 107 107
r 1.03668 0 1 cbr 210 ------- 0 0.0 2.0 103 103
+ 1.03668 1 2 cbr 210 ------- 0 0.0 2.0 103 103
d 1.03668 1 2 cbr 210 ------- 0 0.0 2.0 103 103
+ 1.04 0 1 cbr 210 ------- 0 0.0 2.0 108 108
- 1.04 0 1 cbr 210 ------- 0 0.0 2.0 108 108
r 1.04168 0 1 cbr 210 ------- 0 0.0 2.0 104 104
+ 1.04168 1 2 cbr 210 ------- 0 0.0 2.0 104 104
d 1.04168 1 2 cbr 210 ------- 0 0.0 2.0 104 104
+ 1.045 0 1 cbr 210 ------- 0 0.0 2.0 109 109
- 1.045 0 1 cbr 210 ------- 0 0.0 2.0 109 109
r 1.04568 1 2 cbr 210 ------- 0 0.0 2.0 45 45
r 1.04668 0 1 cbr 210 ------- 0 0.0 2.0 105 105
+ 1.04668 1 2 cbr 210 ------- 0 0.0 2.0 105 105
d 1.04668 1 2 cbr 210 ------- 0 0.0 2.0 105 105
+ 1.05 0 1 cbr 210 ------- 0 0.0 2.0 110 110
- 1.05 0 1 cbr 210 ------- 0 0.0 2.0 110 110
r 1.05168 0 1 cbr 210 ------- 0 0.0 2.0 106 106
+ 1.05168 1 2 cbr 210 ------- 0 0.0 2.0 106 106
d 1.05168 1 2 cbr 210 ------- 0 0.0 2.0 106 106
- 1.05368 1 2 cbr 210 ------- 0 0.0 2.0 56 56
+ 1.055 0 1 cbr 210 ------- 0 0.0 2.0 111 111
- 1.055 0 1 cbr 210 ------- 0 0.0 2.0 111 111
r 1.05668 0 1 cbr 210 ------- 0 0.0 2.0 107 107
+ 1.05668 1 2 cbr 210 ------- 0 0.0 2.0 107 107
+ 1.06 0 1 cbr 210 ------- 0 0.0 2.0 112 112
- 1.06 0 1 cbr 210 ------- 0 0.0 2.0 112 112
r 1.06168 0 1 cbr 210 ------- 0 0.0 2.0 108 108
+ 1.06168 1 2 cbr 210 ------- 0 0.0 2.0 108 108
d 1.06168 1 2 cbr 210 ------- 0 0.0 2.0 108 108
+ 1.065 0 1 cbr 210 ------- 0 0.0 2.0 113 113
- 1.065 0 1 cbr 210 ------- 0 0.0 2.0 113 113
r 1.06668 0 1 cbr 210 ------- 0 0.0 2.0 109 109
+ 1.06668 1 2 cbr 210 ------- 0 0.0 2.0 109 109
d 1.06668 1 2 cbr 210 ------- 0 0.0 2.0 109 109
+ 1.07 0 1 cbr 210 ------- 0 0.0 2.0 114 114
- 1.07 0 1 cbr 210 ------- 0 0.0 2.0 114 114
r 1.07168 0 1 cbr 210 ------- 0 0.0 2.0 110 110
+ 1.07168 1 2 cbr 210 ------- 0 0.0 2.0 110 110
d 1.07168 1 2 cbr 210 ------- 0 0.0 2.0 110 110
r 1.07368 1 2 cbr 210 ------- 0 0.0 2.0 51 51
+ 1.075 0 1 cbr 210 ------- 0 0.0 2.0 115 115
- 1.075 0 1 cbr 210 ------- 0 0.0 2.0 115 115
r 1.07668 0 1 cbr 210 ------- 0 0.0 2.0 111 111
+ 1.07668 1 2 cbr 210 ------- 0 0.0 2.0 111 111
d 1.07668 1 2 cbr 210 ------- 0 0.0 2.0 111 111
+ 1.08 0 1 cbr 210 ------- 0 0.0 2.0 116 116
- 1.08 0 1 cbr 210 ------- 0 0.0 2.0 116 116
r 1.08168 0 1 cbr 210 ------- 0 0.0 2.0 112 112
+ 1.08168 1 2 cbr 210 ------- 0 0.0 2.0 112 112
d 1.08168 1 2 cbr 210 ------- 0 0.0 2.0 112 112
- 1.08168 1 2 cbr 210 ------- 0 0.0 2.0 62 62
+ 1.085 0 1 cbr 210 ------- 0 0.0 2.0 117 117
- 1.085 0 1 cbr 210 ------- 0 0.0 2.0 117 117
r 1.08668 0 1 cbr 210 ------- 0 0.0 2.0 113 113
+ 1.08668 1 2 cbr 210 ------- 0 0.0 2.0 113 113
+ 1.09 0 1 cbr 210 ------- 0 0.0 2.0 118 118
- 1.09 0 1 cbr 210 ------- 0 0.0 2.0 118 118
r 1.09168 0 1 cbr 210 ------- 0 0.0 2.0 114 114
+ 1.09168 1 2 cbr 210 ------- 0 0.0 2.0 114 114
d 1.09168 1 2 cbr 210 ------- 0 0.0 2.0 114 114
+ 1.095 0 1 cbr 210 ------- 0 0.0 2.0 119 119
- 1.095 0 1 cbr 210 ------- 0 0.0 2.0 119 119
r 1.09668 0 1 cbr 210 ------- 0 0.0 2.0 115 115
+ 1.09668 1 2 cbr 210 ------- 0 0.0 2.0 115 115
d 1.09668 1 2 cbr 210 ------- 0 0.0 2.0 115 115
+ 1.1 0 1 cbr 210 ------- 0 0.0 2.0 120 120
- 1.1 0 1 cbr 210 ------- 0 0.0 2.0 120 120
r 1.10168 0 1 cbr 210 ------- 0 0.0 2.0 116 116
+ 1.10168 1 2 cbr 210 ------- 0 0.0 2.0 116 116
d 1.10168 1 2 cbr 210 ------- 0 0.0 2.0 116 116
r 1.10168 1 2 cbr 210 ------- 0 0.0 2.0 56 56
+ 1.105 0 1 cbr 210 ------- 0 0.0 2.0 121 121
- 1.105 0 1 cbr 210 ------- 0 0.0 2.0 121 121
r 1.10668 0 1 cbr 210 ------- 0 0.0 2.0 117 117
+ 1.10668 1 2 cbr 210 ------- 0 0.0 2.0 117 117
d 1.10668 1 2 cbr 210 ------- 0 0.0 2.0 117 117
- 1.10968 1 2 cbr 210 ------- 0 0.0 2.0 68 68
+ 1.11 0 1 cbr 210 ------- 0 0.0 2.0 122 122
- 1.11 0 1 cbr 210 ------- 0 0.0 2.0 122 122
r 1.11168 0 1 cbr 210 ------- 0 0.0 2.0 118 118
+ 1.11168 1 2 cbr 210 ------- 0 0.0 2.0 118 118
+ 1.115 0 1 cbr 210 ------- 0 0.0 2.0 123 123
- 1.115 0 1 cbr 210 ------- 0 0.0 2.0 123 123
r 1.11668 0 1 cbr 210 ------- 0 0.0 2.0 119 119
+ 1.11668 1 2 cbr 210 ------- 0 0.0 2.0 119 119
d 1.11668 1 2 cbr 210 ------- 0 0.0 2.0 119 119
+ 1.12 0 1 cbr 210 ------- 0 0.0 2.0 124 124
- 1.12 0 1 cbr 210 ------- 0 0.0 2.0 124 124
r 1.12168 0 1 cbr 210 ------- 0 0.0 2.0 120 120
+ 1.12168 1 2 cbr 210 ------- 0 0.0 2.0 120 120
d 1.12168 1 2 cbr 210 ------- 0 0.0 2.0 120 120
+ 1.125 0 1 cbr 210 ------- 0 0.0 2.0 125 125
- 1.125 0 1 cbr 210 ------- 0 0.0 2.0 125 125
r 1.12668 0 1 cbr 210 ------- 0 0.0 2.0 121 121
+ 1.12668 1 2 cbr 210 ------- 0 0.0 2.0 121 121
d 1.12668 1 2 cbr 210 ------- 0 0.0 2.0 121 121
r 1.12968 1 2 cbr 210 ------- 0 0.0 2.0 62 62
+ 1.13 0 1 cbr 210 ------- 0 0.0 2.0 126 126
- 1.13 0 1 cbr 210 ------- 0 0.0 2.0 126 126
r 1.13168 0 1 cbr 210 ------- 0 0.0 2.0 122 122
+ 1.13168 1 2 cbr 210 ------- 0 0.0 2.0 122 122
d 1.13168 1 2 cbr 210 ------- 0 0.0 2.0 122 122
+ 1.135 0 1 cbr 210 ------- 0 0.0 2.0 127 127
- 1.135 0 1 cbr 210 ------- 0 0.0 2.0 127 127
r 1.13668 0 1 cbr 210 ------- 0 0.0 2.0 123 123
+ 1.13668 1 2 cbr 210 ------- 0 0.0 2.0 123 123
d 1.13668 1 2 cbr 210 ------- 0 0.0 2.0 123 123
- 1.13768 1 2 cbr 210 ------- 0 0.0 2.0 73 73
+ 1.14 0 1 cbr 210 ------- 0 0.0 2.0 128 128
- 1.14 0 1 cbr 210 ------- 0 0.0 2.0 128 128
r 1.14168 0 1 cbr 210 ------- 0 0.0 2.0 124 124
+ 1.14168 1 2 cbr 210 ------- 0 0.0 2.0 124 124
+ 1.145 0 1 cbr 210 ------- 0 0.0 2.0 129 129
- 1.145 0 1 cbr 210 ------- 0 0.0 2.0 129 129
r 1.14668 0 1 cbr 210 ------- 0 0.0 2.0 125 125
+ 1.14668 1 2 cbr 210 ------- 0 0.0 2.0 125 125
d 1.14668 1 2 cbr 210 ------- 0 0.0 2.0 125 125
+ 1.15 0 1 cbr 210 ------- 0 0.0 2.0 130 130
- 1.15 0 1 cbr 210 ------- 0 0.0 2.0 130 130
r 1.15168 0 1 cbr 210 ------- 0 0.0 2.0 126 126
+ 1.15168 1 2 cbr 210 ------- 0 0.0 2.0 126 126
d 1.15168 1 2 cbr 210 ------- 0 0.0 2.0 126 126
+ 1.155 0 1 cbr 210 ------- 0 0.0 2.0 131 131
- 1.155 0 1 cbr 210 ------- 0 0.0 2.0 131 131
r 1.15668 0 1 cbr 210 ------- 0 0.0 2.0 127 127
+ 1.15668 1 2 cbr 210 ------- 0 0.0 2.0 127 127
d 1.15668 1 2 cbr 210 ------- 0 0.0 2.0 127 127
r 1.15768 1 2 cbr 210 ------- 0 0.0 2.0 68 68
+ 1.16 0 1 cbr 210 ------- 0 0.0 2.0 132 132
- 1.16 0 1 cbr 210 ------- 0 0.0 2.0 132 132