+ 0.3 1 2 cbr 1000 ------- 2 1.0 6.0 0 0
- 0.3 1 2 cbr 1000 ------- 2 1.0 6.0 0 0
r 0.318 1 2 cbr 1000 ------- 2 1.0 6.0 0 0
+ 0.318 2 3 cbr 1000 ------- 2 1.0 6.0 0 0
- 0.318 2 3 cbr 1000 ------- 2 1.0 6.0 0 0
r 0.444667 2 3 cbr 1000 ------- 2 1.0 6.0 0 0
h 0.444667 3 7 cbr 1000 ------- 2 1.0 6.0 0 0
+ 0.46 1 2 cbr 1000 ------- 2 1.0 6.0 1 1
- 0.46 1 2 cbr 1000 ------- 2 1.0 6.0 1 1
r 0.478 1 2 cbr 1000 ------- 2 1.0 6.0 1 1
+ 0.478 2 3 cbr 1000 ------- 2 1.0 6.0 1 1
- 0.478 2 3 cbr 1000 ------- 2 1.0 6.0 1 1
+ 0.484667 3 7 cbr 1000 ------- 2 1.0 6.0 0 0
- 0.484667 3 7 cbr 1000 ------- 2 1.0 6.0 0 0
d 0.484671 5 7 cbr 1000 ------- 2 1.0 6.0 0 0
d 0.484671 4 7 cbr 1000 ------- 2 1.0 6.0 0 0
r 0.524671 7 6 cbr 1000 ------- 2 1.0 6.0 0 0
r 0.604667 2 3 cbr 1000 ------- 2 1.0 6.0 1 1
h 0.604667 3 7 cbr 1000 ------- 2 1.0 6.0 1 1
+ 0.62 1 2 cbr 1000 ------- 2 1.0 6.0 2 2
- 0.62 1 2 cbr 1000 ------- 2 1.0 6.0 2 2
r 0.638 1 2 cbr 1000 ------- 2 1.0 6.0 2 2
+ 0.638 2 3 cbr 1000 ------- 2 1.0 6.0 2 2
- 0.638 2 3 cbr 1000 ------- 2 1.0 6.0 2 2
+ 0.644667 3 7 cbr 1000 ------- 2 1.0 6.0 1 1
- 0.644667 3 7 cbr 1000 ------- 2 1.0 6.0 1 1
d 0.644671 5 7 cbr 1000 ------- 2 1.0 6.0 1 1
d 0.644671 4 7 cbr 1000 ------- 2 1.0 6.0 1 1
r 0.684671 7 6 cbr 1000 ------- 2 1.0 6.0 1 1
r 0.764667 2 3 cbr 1000 ------- 2 1.0 6.0 2 2
h 0.764667 3 7 cbr 1000 ------- 2 1.0 6.0 2 2
+ 0.78 1 2 cbr 1000 ------- 2 1.0 6.0 3 3
- 0.78 1 2 cbr 1000 ------- 2 1.0 6.0 3 3
r 0.798 1 2 cbr 1000 ------- 2 1.0 6.0 3 3
+ 0.798 2 3 cbr 1000 ------- 2 1.0 6.0 3 3
- 0.798 2 3 cbr 1000 ------- 2 1.0 6.0 3 3
+ 0.8 0 2 tcp 40 ------- 1 0.0 4.0 0 4
- 0.8 0 2 tcp 40 ------- 1 0.0 4.0 0 4
+ 0.804667 3 7 cbr 1000 ------- 2 1.0 6.0 2 2
- 0.804667 3 7 cbr 1000 ------- 2 1.0 6.0 2 2
d 0.804671 5 7 cbr 1000 ------- 2 1.0 6.0 2 2
d 0.804671 4 7 cbr 1000 ------- 2 1.0 6.0 2 2
r 0.81032 0 2 tcp 40 ------- 1 0.0 4.0 0 4
+ 0.81032 2 3 tcp 40 ------- 1 0.0 4.0 0 4
- 0.824667 2 3 tcp 40 ------- 1 0.0 4.0 0 4
r 0.844671 7 6 cbr 1000 ------- 2 1.0 6.0 2 2
r 0.924667 2 3 cbr 1000 ------- 2 1.0 6.0 3 3
h 0.924667 3 7 cbr 1000 ------- 2 1.0 6.0 3 3
r 0.925733 2 3 tcp 40 ------- 1 0.0 4.0 0 4
h 0.925733 3 7 tcp 40 ------- 1 0.0 4.0 0 4
+ 0.94 1 2 cbr 1000 ------- 2 1.0 6.0 4 5
- 0.94 1 2 cbr 1000 ------- 2 1.0 6.0 4 5
r 0.958 1 2 cbr 1000 ------- 2 1.0 6.0 4 5
+ 0.958 2 3 cbr 1000 ------- 2 1.0 6.0 4 5
- 0.958 2 3 cbr 1000 ------- 2 1.0 6.0 4 5
+ 0.964667 3 7 cbr 1000 ------- 2 1.0 6.0 3 3
- 0.964667 3 7 cbr 1000 ------- 2 1.0 6.0 3 3
d 0.964671 5 7 cbr 1000 ------- 2 1.0 6.0 3 3
d 0.964671 4 7 cbr 1000 ------- 2 1.0 6.0 3 3
+ 0.965733 3 7 tcp 40 ------- 1 0.0 4.0 0 4
- 0.968923 3 7 tcp 40 ------- 1 0.0 4.0 0 4
d 0.968927 6 7 tcp 40 ------- 1 0.0 4.0 0 4
d 0.968927 5 7 tcp 40 ------- 1 0.0 4.0 0 4
r 1.004671 7 6 cbr 1000 ------- 2 1.0 6.0 3 3
r 1.008927 7 4 tcp 40 ------- 1 0.0 4.0 0 4
h 1.008927 4 7 ack 40 ------- 1 4.0 0.0 0 6
+ 1.048927 4 7 ack 40 ------- 1 4.0 0.0 0 6
- 1.048927 4 7 ack 40 ------- 1 4.0 0.0 0 6
d 1.048931 6 7 ack 40 ------- 1 4.0 0.0 0 6
d 1.048931 5 7 ack 40 ------- 1 4.0 0.0 0 6
r 1.084667 2 3 cbr 1000 ------- 2 1.0 6.0 4 5
h 1.084667 3 7 cbr 1000 ------- 2 1.0 6.0 4 5
r 1.088931 7 3 ack 40 ------- 1 4.0 0.0 0 6
+ 1.088931 3 2 ack 40 ------- 1 4.0 0.0 0 6
- 1.088931 3 2 ack 40 ------- 1 4.0 0.0 0 6
+ 1.1 1 2 cbr 1000 ------- 2 1.0 6.0 5 7
- 1.1 1 2 cbr 1000 ------- 2 1.0 6.0 5 7
r 1.118 1 2 cbr 1000 ------- 2 1.0 6.0 5 7
+ 1.118 2 3 cbr 1000 ------- 2 1.0 6.0 5 7
- 1.118 2 3 cbr 1000 ------- 2 1.0 6.0 5 7
+ 1.124667 3 7 cbr 1000 ------- 2 1.0 6.0 4 5
- 1.124667 3 7 cbr 1000 ------- 2 1.0 6.0 4 5
d 1.124671 5 7 cbr 1000 ------- 2 1.0 6.0 4 5
d 1.124671 4 7 cbr 1000 ------- 2 1.0 6.0 4 5
r 1.164671 7 6 cbr 1000 ------- 2 1.0 6.0 4 5
r 1.189997 3 2 ack 40 ------- 1 4.0 0.0 0 6
+ 1.189997 2 0 ack 40 ------- 1 4.0 0.0 0 6
- 1.189997 2 0 ack 40 ------- 1 4.0 0.0 0 6
r 1.200317 2 0 ack 40 ------- 1 4.0 0.0 0 6
+ 1.200317 0 2 tcp 592 ------- 1 0.0 4.0 1 8
- 1.200317 0 2 tcp 592 ------- 1 0.0 4.0 1 8
+ 1.200317 0 2 tcp 592 ------- 1 0.0 4.0 2 9
- 1.205053 0 2 tcp 592 ------- 1 0.0 4.0 2 9
r 1.215053 0 2 tcp 592 ------- 1 0.0 4.0 1 8
+ 1.215053 2 3 tcp 592 ------- 1 0.0 4.0 1 8
- 1.215053 2 3 tcp 592 ------- 1 0.0 4.0 1 8
r 1.219789 0 2 tcp 592 ------- 1 0.0 4.0 2 9
+ 1.219789 2 3 tcp 592 ------- 1 0.0 4.0 2 9
- 1.23084 2 3 tcp 592 ------- 1 0.0 4.0 2 9
r 1.244667 2 3 cbr 1000 ------- 2 1.0 6.0 5 7
h 1.244667 3 7 cbr 1000 ------- 2 1.0 6.0 5 7
+ 1.26 1 2 cbr 1000 ------- 2 1.0 6.0 6 10
- 1.26 1 2 cbr 1000 ------- 2 1.0 6.0 6 10
r 1.278 1 2 cbr 1000 ------- 2 1.0 6.0 6 10
+ 1.278 2 3 cbr 1000 ------- 2 1.0 6.0 6 10
- 1.278 2 3 cbr 1000 ------- 2 1.0 6.0 6 10
+ 1.284667 3 7 cbr 1000 ------- 2 1.0 6.0 5 7
- 1.284667 3 7 cbr 1000 ------- 2 1.0 6.0 5 7
d 1.284671 5 7 cbr 1000 ------- 2 1.0 6.0 5 7
d 1.284671 4 7 cbr 1000 ------- 2 1.0 6.0 5 7
r 1.324671 7 6 cbr 1000 ------- 2 1.0 6.0 5 7
r 1.33084 2 3 tcp 592 ------- 1 0.0 4.0 1 8
h 1.33084 3 7 tcp 592 ------- 1 0.0 4.0 1 8
r 1.346627 2 3 tcp 592 ------- 1 0.0 4.0 2 9
h 1.346627 3 7 tcp 592 ------- 1 0.0 4.0 2 9
+ 1.37084 3 7 tcp 592 ------- 1 0.0 4.0 1 8
- 1.37084 3 7 tcp 592 ------- 1 0.0 4.0 1 8
d 1.370844 6 7 tcp 592 ------- 1 0.0 4.0 1 8
d 1.370844 5 7 tcp 592 ------- 1 0.0 4.0 1 8
+ 1.386627 3 7 tcp 592 ------- 1 0.0 4.0 2 9
- 1.386627 3 7 tcp 592 ------- 1 0.0 4.0 2 9
d 1.386631 6 7 tcp 592 ------- 1 0.0 4.0 2 9
d 1.386631 5 7 tcp 592 ------- 1 0.0 4.0 2 9
r 1.404667 2 3 cbr 1000 ------- 2 1.0 6.0 6 10
h 1.404667 3 7 cbr 1000 ------- 2 1.0 6.0 6 10
r 1.410844 7 4 tcp 592 ------- 1 0.0 4.0 1 8
+ 1.42 1 2 cbr 1000 ------- 2 1.0 6.0 7 11
- 1.42 1 2 cbr 1000 ------- 2 1.0 6.0 7 11
r 1.426631 7 4 tcp 592 ------- 1 0.0 4.0 2 9
h 1.426631 4 7 ack 40 ------- 1 4.0 0.0 2 12
r 1.438 1 2 cbr 1000 ------- 2 1.0 6.0 7 11
+ 1.438 2 3 cbr 1000 ------- 2 1.0 6.0 7 11
- 1.438 2 3 cbr 1000 ------- 2 1.0 6.0 7 11
+ 1.444667 3 7 cbr 1000 ------- 2 1.0 6.0 6 10
- 1.444667 3 7 cbr 1000 ------- 2 1.0 6.0 6 10
d 1.444671 5 7 cbr 1000 ------- 2 1.0 6.0 6 10
d 1.444671 4 7 cbr 1000 ------- 2 1.0 6.0 6 10
+ 1.466631 4 7 ack 40 ------- 1 4.0 0.0 2 12
- 1.466631 4 7 ack 40 ------- 1 4.0 0.0 2 12
d 1.466635 6 7 ack 40 ------- 1 4.0 0.0 2 12
d 1.466635 5 7 ack 40 ------- 1 4.0 0.0 2 12
r 1.484671 7 6 cbr 1000 ------- 2 1.0 6.0 6 10
r 1.506635 7 3 ack 40 ------- 1 4.0 0.0 2 12
+ 1.506635 3 2 ack 40 ------- 1 4.0 0.0 2 12
- 1.506635 3 2 ack 40 ------- 1 4.0 0.0 2 12
r 1.564667 2 3 cbr 1000 ------- 2 1.0 6.0 7 11
h 1.564667 3 7 cbr 1000 ------- 2 1.0 6.0 7 11
+ 1.58 1 2 cbr 1000 ------- 2 1.0 6.0 8 13
- 1.58 1 2 cbr 1000 ------- 2 1.0 6.0 8 13
r 1.598 1 2 cbr 1000 ------- 2 1.0 6.0 8 13
+ 1.598 2 3 cbr 1000 ------- 2 1.0 6.0 8 13
- 1.598 2 3 cbr 1000 ------- 2 1.0 6.0 8 13
+ 1.604667 3 7 cbr 1000 ------- 2 1.0 6.0 7 11
- 1.604667 3 7 cbr 1000 ------- 2 1.0 6.0 7 11
d 1.604671 5 7 cbr 1000 ------- 2 1.0 6.0 7 11
d 1.604671 4 7 cbr 1000 ------- 2 1.0 6.0 7 11
r 1.607701 3 2 ack 40 ------- 1 4.0 0.0 2 12
+ 1.607701 2 0 ack 40 ------- 1 4.0 0.0 2 12
- 1.607701 2 0 ack 40 ------- 1 4.0 0.0 2 12
r 1.618021 2 0 ack 40 ------- 1 4.0 0.0 2 12
+ 1.618021 0 2 tcp 592 ------- 1 0.0 4.0 3 14
- 1.618021 0 2 tcp 592 ------- 1 0.0 4.0 3 14
+ 1.618021 0 2 tcp 592 ------- 1 0.0 4.0 4 15
+ 1.618021 0 2 tcp 592 ------- 1 0.0 4.0 5 16
- 1.622757 0 2 tcp 592 ------- 1 0.0 4.0 4 15
- 1.627493 0 2 tcp 592 ------- 1 0.0 4.0 5 16
r 1.632757 0 2 tcp 592 ------- 1 0.0 4.0 3 14
+ 1.632757 2 3 tcp 592 ------- 1 0.0 4.0 3 14
- 1.632757 2 3 tcp 592 ------- 1 0.0 4.0 3 14
r 1.637493 0 2 tcp 592 ------- 1 0.0 4.0 4 15
+ 1.637493 2 3 tcp 592 ------- 1 0.0 4.0 4 15
r 1.642229 0 2 tcp 592 ------- 1 0.0 4.0 5 16
+ 1.642229 2 3 tcp 592 ------- 1 0.0 4.0 5 16
r 1.644671 7 6 cbr 1000 ------- 2 1.0 6.0 7 11
- 1.648544 2 3 tcp 592 ------- 1 0.0 4.0 4 15
- 1.664331 2 3 tcp 592 ------- 1 0.0 4.0 5 16
r 1.724667 2 3 cbr 1000 ------- 2 1.0 6.0 8 13
h 1.724667 3 7 cbr 1000 ------- 2 1.0 6.0 8 13
+ 1.74 1 2 cbr 1000 ------- 2 1.0 6.0 9 17
- 1.74 1 2 cbr 1000 ------- 2 1.0 6.0 9 17
r 1.748544 2 3 tcp 592 ------- 1 0.0 4.0 3 14
h 1.748544 3 7 tcp 592 ------- 1 0.0 4.0 3 14
r 1.758 1 2 cbr 1000 ------- 2 1.0 6.0 9 17
+ 1.758 2 3 cbr 1000 ------- 2 1.0 6.0 9 17
- 1.758 2 3 cbr 1000 ------- 2 1.0 6.0 9 17
r 1.764331 2 3 tcp 592 ------- 1 0.0 4.0 4 15
h 1.764331 3 7 tcp 592 ------- 1 0.0 4.0 4 15
+ 1.764667 3 7 cbr 1000 ------- 2 1.0 6.0 8 13
- 1.764667 3 7 cbr 1000 ------- 2 1.0 6.0 8 13
d 1.764671 5 7 cbr 1000 ------- 2 1.0 6.0 8 13
d 1.764671 4 7 cbr 1000 ------- 2 1.0 6.0 8 13
r 1.780117 2 3 tcp 592 ------- 1 0.0 4.0 5 16
h 1.780117 3 7 tcp 592 ------- 1 0.0 4.0 5 16
+ 1.788544 3 7 tcp 592 ------- 1 0.0 4.0 3 14
- 1.788544 3 7 tcp 592 ------- 1 0.0 4.0 3 14
d 1.788548 6 7 tcp 592 ------- 1 0.0 4.0 3 14
d 1.788548 5 7 tcp 592 ------- 1 0.0 4.0 3 14
+ 1.804331 3 7 tcp 592 ------- 1 0.0 4.0 4 15
- 1.804331 3 7 tcp 592 ------- 1 0.0 4.0 4 15
d 1.804335 6 7 tcp 592 ------- 1 0.0 4.0 4 15
d 1.804335 5 7 tcp 592 ------- 1 0.0 4.0 4 15
r 1.804671 7 6 cbr 1000 ------- 2 1.0 6.0 8 13
+ 1.820117 3 7 tcp 592 ------- 1 0.0 4.0 5 16
- 1.820117 3 7 tcp 592 ------- 1 0.0 4.0 5 16
d 1.820121 6 7 tcp 592 ------- 1 0.0 4.0 5 16
d 1.820121 5 7 tcp 592 ------- 1 0.0 4.0 5 16
r 1.828548 7 4 tcp 592 ------- 1 0.0 4.0 3 14
r 1.844335 7 4 tcp 592 ------- 1 0.0 4.0 4 15
h 1.844335 4 7 ack 40 ------- 1 4.0 0.0 4 18
r 1.860121 7 4 tcp 592 ------- 1 0.0 4.0 5 16
+ 1.884335 4 7 ack 40 ------- 1 4.0 0.0 4 18
- 1.884335 4 7 ack 40 ------- 1 4.0 0.0 4 18
d 1.884339 6 7 ack 40 ------- 1 4.0 0.0 4 18
d 1.884339 5 7 ack 40 ------- 1 4.0 0.0 4 18
r 1.884667 2 3 cbr 1000 ------- 2 1.0 6.0 9 17
h 1.884667 3 7 cbr 1000 ------- 2 1.0 6.0 9 17
+ 1.9 1 2 cbr 1000 ------- 2 1.0 6.0 10 19
- 1.9 1 2 cbr 1000 ------- 2 1.0 6.0 10 19
r 1.918 1 2 cbr 1000 ------- 2 1.0 6.0 10 19
+ 1.918 2 3 cbr 1000 ------- 2 1.0 6.0 10 19
- 1.918 2 3 cbr 1000 ------- 2 1.0 6.0 10 19
r 1.924339 7 3 ack 40 ------- 1 4.0 0.0 4 18
+ 1.924339 3 2 ack 40 ------- 1 4.0 0.0 4 18
- 1.924339 3 2 ack 40 ------- 1 4.0 0.0 4 18
+ 1.924667 3 7 cbr 1000 ------- 2 1.0 6.0 9 17
- 1.924667 3 7 cbr 1000 ------- 2 1.0 6.0 9 17
d 1.924671 5 7 cbr 1000 ------- 2 1.0 6.0 9 17
d 1.924671 4 7 cbr 1000 ------- 2 1.0 6.0 9 17
h 1.960121 4 7 ack 40 ------- 1 4.0 0.0 5 20
r 1.964671 7 6 cbr 1000 ------- 2 1.0 6.0 9 17
+ 2.000121 4 7 ack 40 ------- 1 4.0 0.0 5 20
- 2.000121 4 7 ack 40 ------- 1 4.0 0.0 5 20
d 2.000125 6 7 ack 40 ------- 1 4.0 0.0 5 20
d 2.000125 5 7 ack 40 ------- 1 4.0 0.0 5 20
r 2.025405 3 2 ack 40 ------- 1 4.0 0.0 4 18
+ 2.025405 2 0 ack 40 ------- 1 4.0 0.0 4 18
- 2.025405 2 0 ack 40 ------- 1 4.0 0.0 4 18
r 2.035725 2 0 ack 40 ------- 1 4.0 0.0 4 18
+ 2.035725 0 2 tcp 592 ------- 1 0.0 4.0 6 21
- 2.035725 0 2 tcp 592 ------- 1 0.0 4.0 6 21
+ 2.035725 0 2 tcp 592 ------- 1 0.0 4.0 7 22
+ 2.035725 0 2 tcp 592 ------- 1 0.0 4.0 8 23
r 2.040125 7 3 ack 40 ------- 1 4.0 0.0 5 20
+ 2.040125 3 2 ack 40 ------- 1 4.0 0.0 5 20
- 2.040125 3 2 ack 40 ------- 1 4.0 0.0 5 20
- 2.040461 0 2 tcp 592 ------- 1 0.0 4.0 7 22
r 2.044667 2 3 cbr 1000 ------- 2 1.0 6.0 10 19
h 2.044667 3 7 cbr 1000 ------- 2 1.0 6.0 10 19
- 2.045197 0 2 tcp 592 ------- 1 0.0 4.0 8 23
r 2.050461 0 2 tcp 592 ------- 1 0.0 4.0 6 21
+ 2.050461 2 3 tcp 592 ------- 1 0.0 4.0 6 21
- 2.050461 2 3 tcp 592 ------- 1 0.0 4.0 6 21
r 2.055197 0 2 tcp 592 ------- 1 0.0 4.0 7 22
+ 2.055197 2 3 tcp 592 ------- 1 0.0 4.0 7 22
r 2.059933 0 2 tcp 592 ------- 1 0.0 4.0 8 23
+ 2.059933 2 3 tcp 592 ------- 1 0.0 4.0 8 23
+ 2.06 1 2 cbr 1000 ------- 2 1.0 6.0 11 24
- 2.06 1 2 cbr 1000 ------- 2 1.0 6.0 11 24
- 2.066248 2 3 tcp 592 ------- 1 0.0 4.0 7 22
r 2.078 1 2 cbr 1000 ------- 2 1.0 6.0 11 24
+ 2.078 2 3 cbr 1000 ------- 2 1.0 6.0 11 24
- 2.082035 2 3 tcp 592 ------- 1 0.0 4.0 8 23
+ 2.084667 3 7 cbr 1000 ------- 2 1.0 6.0 10 19
- 2.084667 3 7 cbr 1000 ------- 2 1.0 6.0 10 19
d 2.084671 5 7 cbr 1000 ------- 2 1.0 6.0 10 19
d 2.084671 4 7 cbr 1000 ------- 2 1.0 6.0 10 19
- 2.097821 2 3 cbr 1000 ------- 2 1.0 6.0 11 24
r 2.124671 7 6 cbr 1000 ------- 2 1.0 6.0 10 19
r 2.141192 3 2 ack 40 ------- 1 4.0 0.0 5 20
+ 2.141192 2 0 ack 40 ------- 1 4.0 0.0 5 20
- 2.141192 2 0 ack 40 ------- 1 4.0 0.0 5 20
r 2.151512 2 0 ack 40 ------- 1 4.0 0.0 5 20
+ 2.151512 0 2 tcp 592 ------- 1 0.0 4.0 9 25
- 2.151512 0 2 tcp 592 ------- 1 0.0 4.0 9 25
+ 2.151512 0 2 tcp 592 ------- 1 0.0 4.0 10 26
- 2.156248 0 2 tcp 592 ------- 1 0.0 4.0 10 26
r 2.166248 2 3 tcp 592 ------- 1 0.0 4.0 6 21
h 2.166248 3 7 tcp 592 ------- 1 0.0 4.0 6 21
r 2.166248 0 2 tcp 592 ------- 1 0.0 4.0 9 25
+ 2.166248 2 3 tcp 592 ------- 1 0.0 4.0 9 25
- 2.166248 2 3 tcp 592 ------- 1 0.0 4.0 9 25
r 2.170984 0 2 tcp 592 ------- 1 0.0 4.0 10 26
+ 2.170984 2 3 tcp 592 ------- 1 0.0 4.0 10 26
r 2.182035 2 3 tcp 592 ------- 1 0.0 4.0 7 22
h 2.182035 3 7 tcp 592 ------- 1 0.0 4.0 7 22
- 2.182035 2 3 tcp 592 ------- 1 0.0 4.0 10 26
r 2.197821 2 3 tcp 592 ------- 1 0.0 4.0 8 23
h 2.197821 3 7 tcp 592 ------- 1 0.0 4.0 8 23
+ 2.206248 3 7 tcp 592 ------- 1 0.0 4.0 6 21
- 2.206248 3 7 tcp 592 ------- 1 0.0 4.0 6 21
d 2.206252 6 7 tcp 592 ------- 1 0.0 4.0 6 21
d 2.206252 5 7 tcp 592 ------- 1 0.0 4.0 6 21
+ 2.22 1 2 cbr 1000 ------- 2 1.0 6.0 12 27
- 2.22 1 2 cbr 1000 ------- 2 1.0 6.0 12 27
+ 2.222035 3 7 tcp 592 ------- 1 0.0 4.0 7 22
- 2.222035 3 7 tcp 592 ------- 1 0.0 4.0 7 22
d 2.222039 6 7 tcp 592 ------- 1 0.0 4.0 7 22
d 2.222039 5 7 tcp 592 ------- 1 0.0 4.0 7 22
r 2.224488 2 3 cbr 1000 ------- 2 1.0 6.0 11 24
h 2.224488 3 7 cbr 1000 ------- 2 1.0 6.0 11 24
+ 2.237821 3 7 tcp 592 ------- 1 0.0 4.0 8 23
- 2.237821 3 7 tcp 592 ------- 1 0.0 4.0 8 23
d 2.237825 6 7 tcp 592 ------- 1 0.0 4.0 8 23
d 2.237825 5 7 tcp 592 ------- 1 0.0 4.0 8 23
r 2.238 1 2 cbr 1000 ------- 2 1.0 6.0 12 27
+ 2.238 2 3 cbr 1000 ------- 2 1.0 6.0 12 27
- 2.238 2 3 cbr 1000 ------- 2 1.0 6.0 12 27
r 2.246252 7 4 tcp 592 ------- 1 0.0 4.0 6 21
r 2.262039 7 4 tcp 592 ------- 1 0.0 4.0 7 22
h 2.262039 4 7 ack 40 ------- 1 4.0 0.0 7 28
+ 2.264488 3 7 cbr 1000 ------- 2 1.0 6.0 11 24
- 2.264488 3 7 cbr 1000 ------- 2 1.0 6.0 11 24
d 2.264492 5 7 cbr 1000 ------- 2 1.0 6.0 11 24
d 2.264492 4 7 cbr 1000 ------- 2 1.0 6.0 11 24
r 2.277825 7 4 tcp 592 ------- 1 0.0 4.0 8 23
r 2.282035 2 3 tcp 592 ------- 1 0.0 4.0 9 25
h 2.282035 3 7 tcp 592 ------- 1 0.0 4.0 9 25
r 2.297821 2 3 tcp 592 ------- 1 0.0 4.0 10 26
h 2.297821 3 7 tcp 592 ------- 1 0.0 4.0 10 26
+ 2.302039 4 7 ack 40 ------- 1 4.0 0.0 7 28
- 2.302039 4 7 ack 40 ------- 1 4.0 0.0 7 28
d 2.302043 6 7 ack 40 ------- 1 4.0 0.0 7 28
d 2.302043 5 7 ack 40 ------- 1 4.0 0.0 7 28
r 2.304492 7 6 cbr 1000 ------- 2 1.0 6.0 11 24
+ 2.322035 3 7 tcp 592 ------- 1 0.0 4.0 9 25
- 2.322035 3 7 tcp 592 ------- 1 0.0 4.0 9 25
d 2.322039 6 7 tcp 592 ------- 1 0.0 4.0 9 25
d 2.322039 5 7 tcp 592 ------- 1 0.0 4.0 9 25
+ 2.337821 3 7 tcp 592 ------- 1 0.0 4.0 10 26
- 2.337821 3 7 tcp 592 ------- 1 0.0 4.0 10 26
d 2.337825 6 7 tcp 592 ------- 1 0.0 4.0 10 26
d 2.337825 5 7 tcp 592 ------- 1 0.0 4.0 10 26
r 2.342043 7 3 ack 40 ------- 1 4.0 0.0 7 28
+ 2.342043 3 2 ack 40 ------- 1 4.0 0.0 7 28
- 2.342043 3 2 ack 40 ------- 1 4.0 0.0 7 28
r 2.362039 7 4 tcp 592 ------- 1 0.0 4.0 9 25
h 2.362039 4 7 ack 40 ------- 1 4.0 0.0 9 29
r 2.364667 2 3 cbr 1000 ------- 2 1.0 6.0 12 27
h 2.364667 3 7 cbr 1000 ------- 2 1.0 6.0 12 27
r 2.377825 7 4 tcp 592 ------- 1 0.0 4.0 10 26
+ 2.38 1 2 cbr 1000 ------- 2 1.0 6.0 13 30
- 2.38 1 2 cbr 1000 ------- 2 1.0 6.0 13 30
r 2.398 1 2 cbr 1000 ------- 2 1.0 6.0 13 30
+ 2.398 2 3 cbr 1000 ------- 2 1.0 6.0 13 30
- 2.398 2 3 cbr 1000 ------- 2 1.0 6.0 13 30
+ 2.402039 4 7 ack 40 ------- 1 4.0 0.0 9 29
- 2.402039 4 7 ack 40 ------- 1 4.0 0.0 9 29
d 2.402043 6 7 ack 40 ------- 1 4.0 0.0 9 29
d 2.402043 5 7 ack 40 ------- 1 4.0 0.0 9 29
+ 2.404667 3 7 cbr 1000 ------- 2 1.0 6.0 12 27
- 2.404667 3 7 cbr 1000 ------- 2 1.0 6.0 12 27
d 2.404671 5 7 cbr 1000 ------- 2 1.0 6.0 12 27
d 2.404671 4 7 cbr 1000 ------- 2 1.0 6.0 12 27
r 2.442043 7 3 ack 40 ------- 1 4.0 0.0 9 29
+ 2.442043 3 2 ack 40 ------- 1 4.0 0.0 9 29
- 2.442043 3 2 ack 40 ------- 1 4.0 0.0 9 29
r 2.443109 3 2 ack 40 ------- 1 4.0 0.0 7 28
+ 2.443109 2 0 ack 40 ------- 1 4.0 0.0 7 28
- 2.443109 2 0 ack 40 ------- 1 4.0 0.0 7 28
r 2.444671 7 6 cbr 1000 ------- 2 1.0 6.0 12 27
r 2.453429 2 0 ack 40 ------- 1 4.0 0.0 7 28
+ 2.453429 0 2 tcp 592 ------- 1 0.0 4.0 11 31
- 2.453429 0 2 tcp 592 ------- 1 0.0 4.0 11 31
+ 2.453429 0 2 tcp 592 ------- 1 0.0 4.0 12 32
+ 2.453429 0 2 tcp 592 ------- 1 0.0 4.0 13 33
- 2.458165 0 2 tcp 592 ------- 1 0.0 4.0 12 32
- 2.462901 0 2 tcp 592 ------- 1 0.0 4.0 13 33
r 2.468165 0 2 tcp 592 ------- 1 0.0 4.0 11 31
+ 2.468165 2 3 tcp 592 ------- 1 0.0 4.0 11 31
- 2.468165 2 3 tcp 592 ------- 1 0.0 4.0 11 31
r 2.472901 0 2 tcp 592 ------- 1 0.0 4.0 12 32
+ 2.472901 2 3 tcp 592 ------- 1 0.0 4.0 12 32
r 2.477637 0 2 tcp 592 ------- 1 0.0 4.0 13 33
+ 2.477637 2 3 tcp 592 ------- 1 0.0 4.0 13 33
h 2.477825 4 7 ack 40 ------- 1 4.0 0.0 10 34
- 2.483952 2 3 tcp 592 ------- 1 0.0 4.0 12 32
- 2.499739 2 3 tcp 592 ------- 1 0.0 4.0 13 33
+ 2.517825 4 7 ack 40 ------- 1 4.0 0.0 10 34
- 2.517825 4 7 ack 40 ------- 1 4.0 0.0 10 34
d 2.517829 6 7 ack 40 ------- 1 4.0 0.0 10 34
d 2.517829 5 7 ack 40 ------- 1 4.0 0.0 10 34
r 2.524667 2 3 cbr 1000 ------- 2 1.0 6.0 13 30
h 2.524667 3 7 cbr 1000 ------- 2 1.0 6.0 13 30
+ 2.54 1 2 cbr 1000 ------- 2 1.0 6.0 14 35
- 2.54 1 2 cbr 1000 ------- 2 1.0 6.0 14 35
r 2.543109 3 2 ack 40 ------- 1 4.0 0.0 9 29
+ 2.543109 2 0 ack 40 ------- 1 4.0 0.0 9 29
- 2.543109 2 0 ack 40 ------- 1 4.0 0.0 9 29
r 2.553429 2 0 ack 40 ------- 1 4.0 0.0 9 29
+ 2.553429 0 2 tcp 592 ------- 1 0.0 4.0 14 36
- 2.553429 0 2 tcp 592 ------- 1 0.0 4.0 14 36
+ 2.553429 0 2 tcp 592 ------- 1 0.0 4.0 15 37
+ 2.553429 0 2 tcp 592 ------- 1 0.0 4.0 16 38
r 2.557829 7 3 ack 40 ------- 1 4.0 0.0 10 34
+ 2.557829 3 2 ack 40 ------- 1 4.0 0.0 10 34
- 2.557829 3 2 ack 40 ------- 1 4.0 0.0 10 34
r 2.558 1 2 cbr 1000 ------- 2 1.0 6.0 14 35
+ 2.558 2 3 cbr 1000 ------- 2 1.0 6.0 14 35
- 2.558 2 3 cbr 1000 ------- 2 1.0 6.0 14 35
- 2.558165 0 2 tcp 592 ------- 1 0.0 4.0 15 37
- 2.562901 0 2 tcp 592 ------- 1 0.0 4.0 16 38
+ 2.564667 3 7 cbr 1000 ------- 2 1.0 6.0 13 30
- 2.564667 3 7 cbr 1000 ------- 2 1.0 6.0 13 30
d 2.564671 5 7 cbr 1000 ------- 2 1.0 6.0 13 30
d 2.564671 4 7 cbr 1000 ------- 2 1.0 6.0 13 30
r 2.568165 0 2 tcp 592 ------- 1 0.0 4.0 14 36
+ 2.568165 2 3 tcp 592 ------- 1 0.0 4.0 14 36
r 2.572901 0 2 tcp 592 ------- 1 0.0 4.0 15 37
+ 2.572901 2 3 tcp 592 ------- 1 0.0 4.0 15 37
r 2.577637 0 2 tcp 592 ------- 1 0.0 4.0 16 38
+ 2.577637 2 3 tcp 592 ------- 1 0.0 4.0 16 38
r 2.583952 2 3 tcp 592 ------- 1 0.0 4.0 11 31
h 2.583952 3 7 tcp 592 ------- 1 0.0 4.0 11 31
- 2.584667 2 3 tcp 592 ------- 1 0.0 4.0 14 36
r 2.599739 2 3 tcp 592 ------- 1 0.0 4.0 12 32
h 2.599739 3 7 tcp 592 ------- 1 0.0 4.0 12 32
- 2.600453 2 3 tcp 592 ------- 1 0.0 4.0 15 37
r 2.604671 7 6 cbr 1000 ------- 2 1.0 6.0 13 30
r 2.615525 2 3 tcp 592 ------- 1 0.0 4.0 13 33
h 2.615525 3 7 tcp 592 ------- 1 0.0 4.0 13 33
- 2.61624 2 3 tcp 592 ------- 1 0.0 4.0 16 38
+ 2.623952 3 7 tcp 592 ------- 1 0.0 4.0 11 31
- 2.623952 3 7 tcp 592 ------- 1 0.0 4.0 11 31
d 2.623956 6 7 tcp 592 ------- 1 0.0 4.0 11 31
d 2.623956 5 7 tcp 592 ------- 1 0.0 4.0 11 31
+ 2.639739 3 7 tcp 592 ------- 1 0.0 4.0 12 32
- 2.639739 3 7 tcp 592 ------- 1 0.0 4.0 12 32
d 2.639743 6 7 tcp 592 ------- 1 0.0 4.0 12 32
d 2.639743 5 7 tcp 592 ------- 1 0.0 4.0 12 32
+ 2.655525 3 7 tcp 592 ------- 1 0.0 4.0 13 33
- 2.655525 3 7 tcp 592 ------- 1 0.0 4.0 13 33
d 2.655529 6 7 tcp 592 ------- 1 0.0 4.0 13 33
d 2.655529 5 7 tcp 592 ------- 1 0.0 4.0 13 33
r 2.658896 3 2 ack 40 ------- 1 4.0 0.0 10 34
+ 2.658896 2 0 ack 40 ------- 1 4.0 0.0 10 34
- 2.658896 2 0 ack 40 ------- 1 4.0 0.0 10 34
r 2.663956 7 4 tcp 592 ------- 1 0.0 4.0 11 31
r 2.669216 2 0 ack 40 ------- 1 4.0 0.0 10 34
+ 2.669216 0 2 tcp 592 ------- 1 0.0 4.0 17 39
- 2.669216 0 2 tcp 592 ------- 1 0.0 4.0 17 39
+ 2.669216 0 2 tcp 592 ------- 1 0.0 4.0 18 40
- 2.673952 0 2 tcp 592 ------- 1 0.0 4.0 18 40
r 2.679743 7 4 tcp 592 ------- 1 0.0 4.0 12 32
h 2.679743 4 7 ack 40 ------- 1 4.0 0.0 12 41
r 2.683952 0 2 tcp 592 ------- 1 0.0 4.0 17 39
+ 2.683952 2 3 tcp 592 ------- 1 0.0 4.0 17 39
- 2.683952 2 3 tcp 592 ------- 1 0.0 4.0 17 39
r 2.684667 2 3 cbr 1000 ------- 2 1.0 6.0 14 35
h 2.684667 3 7 cbr 1000 ------- 2 1.0 6.0 14 35
r 2.688688 0 2 tcp 592 ------- 1 0.0 4.0 18 40
+ 2.688688 2 3 tcp 592 ------- 1 0.0 4.0 18 40
r 2.695529 7 4 tcp 592 ------- 1 0.0 4.0 13 33
- 2.699739 2 3 tcp 592 ------- 1 0.0 4.0 18 40
+ 2.7 1 2 cbr 1000 ------- 2 1.0 6.0 15 42
- 2.7 1 2 cbr 1000 ------- 2 1.0 6.0 15 42
r 2.700453 2 3 tcp 592 ------- 1 0.0 4.0 14 36
h 2.700453 3 7 tcp 592 ------- 1 0.0 4.0 14 36
r 2.71624 2 3 tcp 592 ------- 1 0.0 4.0 15 37
h 2.71624 3 7 tcp 592 ------- 1 0.0 4.0 15 37
r 2.718 1 2 cbr 1000 ------- 2 1.0 6.0 15 42
+ 2.718 2 3 cbr 1000 ------- 2 1.0 6.0 15 42
- 2.718 2 3 cbr 1000 ------- 2 1.0 6.0 15 42
+ 2.719743 4 7 ack 40 ------- 1 4.0 0.0 12 41
- 2.719743 4 7 ack 40 ------- 1 4.0 0.0 12 41
d 2.719747 6 7 ack 40 ------- 1 4.0 0.0 12 41
d 2.719747 5 7 ack 40 ------- 1 4.0 0.0 12 41
+ 2.724667 3 7 cbr 1000 ------- 2 1.0 6.0 14 35
- 2.724667 3 7 cbr 1000 ------- 2 1.0 6.0 14 35
d 2.724671 5 7 cbr 1000 ------- 2 1.0 6.0 14 35
d 2.724671 4 7 cbr 1000 ------- 2 1.0 6.0 14 35
r 2.732027 2 3 tcp 592 ------- 1 0.0 4.0 16 38
h 2.732027 3 7 tcp 592 ------- 1 0.0 4.0 16 38
+ 2.740453 3 7 tcp 592 ------- 1 0.0 4.0 14 36
- 2.740453 3 7 tcp 592 ------- 1 0.0 4.0 14 36
d 2.740457 6 7 tcp 592 ------- 1 0.0 4.0 14 36
d 2.740457 5 7 tcp 592 ------- 1 0.0 4.0 14 36
+ 2.75624 3 7 tcp 592 ------- 1 0.0 4.0 15 37
- 2.75624 3 7 tcp 592 ------- 1 0.0 4.0 15 37
d 2.756244 6 7 tcp 592 ------- 1 0.0 4.0 15 37
d 2.756244 5 7 tcp 592 ------- 1 0.0 4.0 15 37
r 2.759747 7 3 ack 40 ------- 1 4.0 0.0 12 41
+ 2.759747 3 2 ack 40 ------- 1 4.0 0.0 12 41
- 2.759747 3 2 ack 40 ------- 1 4.0 0.0 12 41
r 2.764671 7 6 cbr 1000 ------- 2 1.0 6.0 14 35
+ 2.772027 3 7 tcp 592 ------- 1 0.0 4.0 16 38
- 2.772027 3 7 tcp 592 ------- 1 0.0 4.0 16 38
d 2.772031 6 7 tcp 592 ------- 1 0.0 4.0 16 38
d 2.772031 5 7 tcp 592 ------- 1 0.0 4.0 16 38
r 2.780457 7 4 tcp 592 ------- 1 0.0 4.0 14 36
h 2.780457 4 7 ack 40 ------- 1 4.0 0.0 14 43
r 2.796244 7 4 tcp 592 ------- 1 0.0 4.0 15 37
r 2.799739 2 3 tcp 592 ------- 1 0.0 4.0 17 39
h 2.799739 3 7 tcp 592 ------- 1 0.0 4.0 17 39
r 2.812031 7 4 tcp 592 ------- 1 0.0 4.0 16 38
h 2.812031 4 7 ack 40 ------- 1 4.0 0.0 16 44
r 2.815525 2 3 tcp 592 ------- 1 0.0 4.0 18 40
h 2.815525 3 7 tcp 592 ------- 1 0.0 4.0 18 40
+ 2.820457 4 7 ack 40 ------- 1 4.0 0.0 14 43
- 2.820457 4 7 ack 40 ------- 1 4.0 0.0 14 43
d 2.820461 6 7 ack 40 ------- 1 4.0 0.0 14 43
d 2.820461 5 7 ack 40 ------- 1 4.0 0.0 14 43
+ 2.839739 3 7 tcp 592 ------- 1 0.0 4.0 17 39
- 2.839739 3 7 tcp 592 ------- 1 0.0 4.0 17 39
d 2.839743 6 7 tcp 592 ------- 1 0.0 4.0 17 39
d 2.839743 5 7 tcp 592 ------- 1 0.0 4.0 17 39
r 2.844667 2 3 cbr 1000 ------- 2 1.0 6.0 15 42
h 2.844667 3 7 cbr 1000 ------- 2 1.0 6.0 15 42
+ 2.852031 4 7 ack 40 ------- 1 4.0 0.0 16 44
- 2.852031 4 7 ack 40 ------- 1 4.0 0.0 16 44
d 2.852035 6 7 ack 40 ------- 1 4.0 0.0 16 44
d 2.852035 5 7 ack 40 ------- 1 4.0 0.0 16 44
+ 2.855525 3 7 tcp 592 ------- 1 0.0 4.0 18 40
- 2.855525 3 7 tcp 592 ------- 1 0.0 4.0 18 40
d 2.855529 6 7 tcp 592 ------- 1 0.0 4.0 18 40
d 2.855529 5 7 tcp 592 ------- 1 0.0 4.0 18 40
+ 2.86 1 2 cbr 1000 ------- 2 1.0 6.0 16 45
- 2.86 1 2 cbr 1000 ------- 2 1.0 6.0 16 45
r 2.860461 7 3 ack 40 ------- 1 4.0 0.0 14 43
+ 2.860461 3 2 ack 40 ------- 1 4.0 0.0 14 43
- 2.860461 3 2 ack 40 ------- 1 4.0 0.0 14 43
r 2.860813 3 2 ack 40 ------- 1 4.0 0.0 12 41
+ 2.860813 2 0 ack 40 ------- 1 4.0 0.0 12 41
- 2.860813 2 0 ack 40 ------- 1 4.0 0.0 12 41
r 2.871133 2 0 ack 40 ------- 1 4.0 0.0 12 41
+ 2.871133 0 2 tcp 592 ------- 1 0.0 4.0 19 46
- 2.871133 0 2 tcp 592 ------- 1 0.0 4.0 19 46
+ 2.871133 0 2 tcp 592 ------- 1 0.0 4.0 20 47
+ 2.871133 0 2 tcp 592 ------- 1 0.0 4.0 21 48
- 2.875869 0 2 tcp 592 ------- 1 0.0 4.0 20 47
r 2.878 1 2 cbr 1000 ------- 2 1.0 6.0 16 45
+ 2.878 2 3 cbr 1000 ------- 2 1.0 6.0 16 45
- 2.878 2 3 cbr 1000 ------- 2 1.0 6.0 16 45
r 2.879743 7 4 tcp 592 ------- 1 0.0 4.0 17 39
- 2.880605 0 2 tcp 592 ------- 1 0.0 4.0 21 48
+ 2.884667 3 7 cbr 1000 ------- 2 1.0 6.0 15 42
- 2.884667 3 7 cbr 1000 ------- 2 1.0 6.0 15 42
d 2.884671 5 7 cbr 1000 ------- 2 1.0 6.0 15 42
d 2.884671 4 7 cbr 1000 ------- 2 1.0 6.0 15 42
r 2.885869 0 2 tcp 592 ------- 1 0.0 4.0 19 46
+ 2.885869 2 3 tcp 592 ------- 1 0.0 4.0 19 46
r 2.890605 0 2 tcp 592 ------- 1 0.0 4.0 20 47
+ 2.890605 2 3 tcp 592 ------- 1 0.0 4.0 20 47
r 2.892035 7 3 ack 40 ------- 1 4.0 0.0 16 44
+ 2.892035 3 2 ack 40 ------- 1 4.0 0.0 16 44
- 2.892035 3 2 ack 40 ------- 1 4.0 0.0 16 44
r 2.895341 0 2 tcp 592 ------- 1 0.0 4.0 21 48
+ 2.895341 2 3 tcp 592 ------- 1 0.0 4.0 21 48
r 2.895529 7 4 tcp 592 ------- 1 0.0 4.0 18 40
h 2.895529 4 7 ack 40 ------- 1 4.0 0.0 18 49
- 2.904667 2 3 tcp 592 ------- 1 0.0 4.0 19 46
- 2.920453 2 3 tcp 592 ------- 1 0.0 4.0 20 47
r 2.924671 7 6 cbr 1000 ------- 2 1.0 6.0 15 42
+ 2.935529 4 7 ack 40 ------- 1 4.0 0.0 18 49
- 2.935529 4 7 ack 40 ------- 1 4.0 0.0 18 49
d 2.935533 6 7 ack 40 ------- 1 4.0 0.0 18 49
d 2.935533 5 7 ack 40 ------- 1 4.0 0.0 18 49
- 2.93624 2 3 tcp 592 ------- 1 0.0 4.0 21 48
r 2.961528 3 2 ack 40 ------- 1 4.0 0.0 14 43
+ 2.961528 2 0 ack 40 ------- 1 4.0 0.0 14 43
- 2.961528 2 0 ack 40 ------- 1 4.0 0.0 14 43
r 2.971848 2 0 ack 40 ------- 1 4.0 0.0 14 43
+ 2.971848 0 2 tcp 592 ------- 1 0.0 4.0 22 50
- 2.971848 0 2 tcp 592 ------- 1 0.0 4.0 22 50
+ 2.971848 0 2 tcp 592 ------- 1 0.0 4.0 23 51
+ 2.971848 0 2 tcp 592 ------- 1 0.0 4.0 24 52
r 2.975533 7 3 ack 40 ------- 1 4.0 0.0 18 49
+ 2.975533 3 2 ack 40 ------- 1 4.0 0.0 18 49
- 2.975533 3 2 ack 40 ------- 1 4.0 0.0 18 49
- 2.976584 0 2 tcp 592 ------- 1 0.0 4.0 23 51
- 2.98132 0 2 tcp 592 ------- 1 0.0 4.0 24 52
r 2.986584 0 2 tcp 592 ------- 1 0.0 4.0 22 50
+ 2.986584 2 3 tcp 592 ------- 1 0.0 4.0 22 50
- 2.986584 2 3 tcp 592 ------- 1 0.0 4.0 22 50
r 2.99132 0 2 tcp 592 ------- 1 0.0 4.0 23 51
+ 2.99132 2 3 tcp 592 ------- 1 0.0 4.0 23 51
r 2.993101 3 2 ack 40 ------- 1 4.0 0.0 16 44
+ 2.993101 2 0 ack 40 ------- 1 4.0 0.0 16 44
- 2.993101 2 0 ack 40 ------- 1 4.0 0.0 16 44
r 2.996056 0 2 tcp 592 ------- 1 0.0 4.0 24 52
+ 2.996056 2 3 tcp 592 ------- 1 0.0 4.0 24 52
- 3.002371 2 3 tcp 592 ------- 1 0.0 4.0 23 51
r 3.003421 2 0 ack 40 ------- 1 4.0 0.0 16 44
+ 3.003421 0 2 tcp 592 ------- 1 0.0 4.0 25 53
- 3.003421 0 2 tcp 592 ------- 1 0.0 4.0 25 53
+ 3.003421 0 2 tcp 592 ------- 1 0.0 4.0 26 54
+ 3.003421 0 2 tcp 592 ------- 1 0.0 4.0 27 55
r 3.004667 2 3 cbr 1000 ------- 2 1.0 6.0 16 45
h 3.004667 3 7 cbr 1000 ------- 2 1.0 6.0 16 45
- 3.008157 0 2 tcp 592 ------- 1 0.0 4.0 26 54
- 3.012893 0 2 tcp 592 ------- 1 0.0 4.0 27 55
- 3.018157 2 3 tcp 592 ------- 1 0.0 4.0 24 52
r 3.018157 0 2 tcp 592 ------- 1 0.0 4.0 25 53
+ 3.018157 2 3 tcp 592 ------- 1 0.0 4.0 25 53
+ 3.02 1 2 cbr 1000 ------- 2 1.0 6.0 17 56
- 3.02 1 2 cbr 1000 ------- 2 1.0 6.0 17 56
r 3.020453 2 3 tcp 592 ------- 1 0.0 4.0 19 46
h 3.020453 3 7 tcp 592 ------- 1 0.0 4.0 19 46
r 3.022893 0 2 tcp 592 ------- 1 0.0 4.0 26 54
+ 3.022893 2 3 tcp 592 ------- 1 0.0 4.0 26 54
r 3.027629 0 2 tcp 592 ------- 1 0.0 4.0 27 55
+ 3.027629 2 3 tcp 592 ------- 1 0.0 4.0 27 55
- 3.033944 2 3 tcp 592 ------- 1 0.0 4.0 25 53
r 3.03624 2 3 tcp 592 ------- 1 0.0 4.0 20 47
h 3.03624 3 7 tcp 592 ------- 1 0.0 4.0 20 47
r 3.038 1 2 cbr 1000 ------- 2 1.0 6.0 17 56
+ 3.038 2 3 cbr 1000 ------- 2 1.0 6.0 17 56
+ 3.044667 3 7 cbr 1000 ------- 2 1.0 6.0 16 45
- 3.044667 3 7 cbr 1000 ------- 2 1.0 6.0 16 45
d 3.044671 5 7 cbr 1000 ------- 2 1.0 6.0 16 45
d 3.044671 4 7 cbr 1000 ------- 2 1.0 6.0 16 45
- 3.049731 2 3 tcp 592 ------- 1 0.0 4.0 26 54
r 3.052027 2 3 tcp 592 ------- 1 0.0 4.0 21 48
h 3.052027 3 7 tcp 592 ------- 1 0.0 4.0 21 48
+ 3.060453 3 7 tcp 592 ------- 1 0.0 4.0 19 46
- 3.060453 3 7 tcp 592 ------- 1 0.0 4.0 19 46
d 3.060457 6 7 tcp 592 ------- 1 0.0 4.0 19 46
d 3.060457 5 7 tcp 592 ------- 1 0.0 4.0 19 46
- 3.065517 2 3 tcp 592 ------- 1 0.0 4.0 27 55
+ 3.07624 3 7 tcp 592 ------- 1 0.0 4.0 20 47
- 3.07624 3 7 tcp 592 ------- 1 0.0 4.0 20 47
d 3.076244 6 7 tcp 592 ------- 1 0.0 4.0 20 47
d 3.076244 5 7 tcp 592 ------- 1 0.0 4.0 20 47
r 3.0766 3 2 ack 40 ------- 1 4.0 0.0 18 49
+ 3.0766 2 0 ack 40 ------- 1 4.0 0.0 18 49
- 3.0766 2 0 ack 40 ------- 1 4.0 0.0 18 49
- 3.081304 2 3 cbr 1000 ------- 2 1.0 6.0 17 56
r 3.084671 7 6 cbr 1000 ------- 2 1.0 6.0 16 45
r 3.08692 2 0 ack 40 ------- 1 4.0 0.0 18 49
+ 3.08692 0 2 tcp 592 ------- 1 0.0 4.0 28 57
- 3.08692 0 2 tcp 592 ------- 1 0.0 4.0 28 57
+ 3.08692 0 2 tcp 592 ------- 1 0.0 4.0 29 58
+ 3.08692 0 2 tcp 592 ------- 1 0.0 4.0 30 59
- 3.091656 0 2 tcp 592 ------- 1 0.0 4.0 29 58
+ 3.092027 3 7 tcp 592 ------- 1 0.0 4.0 21 48
- 3.092027 3 7 tcp 592 ------- 1 0.0 4.0 21 48
d 3.092031 6 7 tcp 592 ------- 1 0.0 4.0 21 48
d 3.092031 5 7 tcp 592 ------- 1 0.0 4.0 21 48
- 3.096392 0 2 tcp 592 ------- 1 0.0 4.0 30 59
r 3.100457 7 4 tcp 592 ------- 1 0.0 4.0 19 46
r 3.101656 0 2 tcp 592 ------- 1 0.0 4.0 28 57
+ 3.101656 2 3 tcp 592 ------- 1 0.0 4.0 28 57
r 3.102371 2 3 tcp 592 ------- 1 0.0 4.0 22 50
h 3.102371 3 7 tcp 592 ------- 1 0.0 4.0 22 50
r 3.106392 0 2 tcp 592 ------- 1 0.0 4.0 29 58
+ 3.106392 2 3 tcp 592 ------- 1 0.0 4.0 29 58
- 3.107971 2 3 tcp 592 ------- 1 0.0 4.0 28 57
r 3.111128 0 2 tcp 592 ------- 1 0.0 4.0 30 59
+ 3.111128 2 3 tcp 592 ------- 1 0.0 4.0 30 59
r 3.116244 7 4 tcp 592 ------- 1 0.0 4.0 20 47
h 3.116244 4 7 ack 40 ------- 1 4.0 0.0 20 60
r 3.118157 2 3 tcp 592 ------- 1 0.0 4.0 23 51
h 3.118157 3 7 tcp 592 ------- 1 0.0 4.0 23 51
- 3.123757 2 3 tcp 592 ------- 1 0.0 4.0 29 58